[Molden Format]
[Molpro variables]
_NUMVAR=  1041.000000000000    
_AVOGAD= 0.6022140760000000E+24
_BOLTZ= 0.1380649000000000E-22
_CLIGHTSI=  299792458.0000000    
_JOULE= 0.4359744722207100E-17
_JPCAL=  4.184000000000000    
_PLANCK= 0.6626070150000000E-33
_BOHR= 0.5291772109030000E-10
_ECHARG= 0.1602176634000000E-18
_ENULL= 0.8854187812800001E-11
_MU= 0.1660539066600000E-26
_EMASS= 0.9109383701500001E-30
_AMU2AU=  1822.888486217313    
_CLIGHT=  29979245800.00000    
_EV= 0.3674932217565494E-01
_KJOULE= 0.3808798847133432E-03
_KJOULE/MOL= 0.3808798847133432E-03
_CM= 0.4556335252912009E-05
_CM-1= 0.4556335252912009E-05
_DEB2SI= 0.3335640951981520E-29
_KCAL= 0.1593601437640628E-02
_KCAL/MOL= 0.1593601437640628E-02
_KELVIN= 0.3166811563455608E-05
_HERTZ= 0.1519829846057038E-15
_HZ= 0.1519829846057038E-15
_TOA= 0.5291772109030000    
_TOANG= 0.5291772109030000    
_TORAD= 0.1745329251994330E-01
_TOCM=  219474.6313631965    
_TODEBYE=  2.541746473194078    
_TOE= 0.4803204712570263E-09
_TOEV=  27.21138624598803    
_TOHERTZ=  6579683920501656.    
_TOHZ=  6579683920501656.    
_TOK=  315775.0248040668    
_TOKCAL=  627.5094740630558    
_TOKELVIN=  315775.0248040668    
_TOKJ=  2625.499639479825    
_TOKJOULE=  2625.499639479825    
_TOKG= 0.1660539066600000E-26
_ANG=  1.889726124625770    
_ANGSTROM=  1.889726124625770    
_RPAREF=  0.000000000000000    
_RPADISS=  0.000000000000000    
_IGNORE_UNDEF=  2.000000000000000    
_STRICTCHECK=  0.000000000000000    
!SEWARD=  0.000000000000000    
!MULTI=  0.000000000000000    
!DFMULTI=  0.000000000000000    
_SEW_ONEEL=  0.000000000000000    
_CPPDONE=FALSE
_DKROLL_DONE=  0.000000000000000    
_FNUC_DONE=  0.000000000000000    
_FOCKDONE=TRUE
_GRADONE=FALSE
_HESSDONE=FALSE
_INTDONE=TRUE
_SCFDONE=TRUE
_MODUL_BLOCK=FALSE
_MODUL_CUDA=FALSE
_MODUL_SLATER=FALSE
_MODUL_MRCC=TRUE
_MODUL_NBO6=FALSE
_MODUL_NECI=FALSE
_MODUL_AIMS=TRUE
_MODUL_GECCO=FALSE
_ISWINDOWS=FALSE
_MRCC_EXEC=/software/cinetica/mrcc/bin/dmrcc
_FITC_AO_SAVED=FALSE
_FITC_MO_SAVED=FALSE
_SHARED_FS=TRUE
_LSTYP=SEWARD
_INTYP=INTS
_GEOMTYP=ZMAT
_GRADTYP=ALASKA
_DIRECT=FALSE
_DKHO= -1.000000000000000    
_FNUC=  0.000000000000000    
_SYNCM=  0.000000000000000    
_BASIS=AUG-CC-PVTZ
_ZSYMEL=NOSYM
_ZORIENT=  1.000000000000000    
!ZORIENT=  0.000000000000000    
_NELEC=  10.00000000000000    
_SPIN=  2.000000000000000    
!SPIN=  2.000000000000000    
_QSDSTEP=  0.000000000000000    
_QSDIRC=  0.000000000000000    
_PROGRAM=UCCSD(T)
_CPUSTEP=  8.130000000000001    
_SYSSTEP=  1.650000000000000    
_WALLSTEP=  12.31000000000000    
!DFMP2=  0.000000000000000    
!DFSCF=  0.000000000000000    
!SCSGRD=  0.000000000000000    
_CPUTOT=  14.65000000000000    
_CPUCCSD=  0.000000000000000    
_SYSCCSD=  0.000000000000000    
_WALLCCSD=  0.000000000000000    
_CPUF12=  0.000000000000000    
_SYSF12=  0.000000000000000    
_WALLF12=  0.000000000000000    
_CPUF12B=  0.000000000000000    
_SYSF12B=  0.000000000000000    
_WALLF12B=  0.000000000000000    
_CPUTRANS=  0.000000000000000    
_SYSTRANS=  0.000000000000000    
_WALLTRANS=  0.000000000000000    
_DFTEXFAC=  1.000000000000000    
_DMX=  0.000000000000000    
_DMY=  0.000000000000000    
_DMZ=  0.000000000000000    
_DMX_SCF= 0.1666003566273572E-04
_DMY_SCF= 0.8843259715304963E-05
_DMZ_SCF=-0.2262161059143817    
_HOMO=  6.100000000000000    
_EHOMO=-0.3328755860767087    
_LUMO=  7.100000000000000    
_ELUMO= 0.3385209484291421E-01
_EMP2= -40.20729487661519    
_EMP2_SING=-0.1179733701935554    
_EMP2_TRIP=-0.4714410314402406E-01
_ECSING=-0.1390411929805121    
_ECTRIP=-0.4613478383654429E-01
_ECTRIPAB=-0.1376142698229973E-01
_ECTRIPAA=-0.2458775310108699E-01
_ECTRIPBB=-0.7785603753157575E-02
_ECSINGLES=-0.3008609685130226E-02
_ENERGC= -40.22780320934112    
_ENERG_CC=  0.000000000000000    
_ENERG_CV=  0.000000000000000    
_ENERG_VV=-0.1881845865021866    
_ENERGR= -40.03961862283893    
_ENERGT= -40.23305097089584    
_ENERGU= -40.20210464952508    
_ENERGY= -40.23305097089584    
_ENERGY_METHOD=UCCSD(T)
_ENERGY_BASIS=aug-cc-pVTZ
_GEOMETRY_METHOD=
_GEOMETRY_BASIS=
_ENERGY_AVRG= -40.03961862283894    
_ENUC=  11.92996130961005    
_GRADEXFAC=  9999.000000000000    
_GRADMETHOD=  0.000000000000000    
_NMRMETHOD=  0.000000000000000    
_NMRMAGNET=  0.000000000000000    
!GRID_FREEZE= -1.000000000000000    
!NEESE_INDEX=  0.000000000000000    
_ITERATIONS=  8.000000000000000    
_LASTNELEC=  10.00000000000000    
_LASTSPIN=  2.000000000000000    
_LASTSYM=  1.000000000000000    
_MPP_PROG=  1.000000000000000    
_MSNSTATES=  0.000000000000000    
_RS2PHASE=  0.000000000000000    
_IPROC_MPP=  0.000000000000000    
_IPROC_MPPX=  0.000000000000000    
_NPROC_MPP=  4.000000000000000    
_NPROC_MPPX=  4.000000000000000    
_NPROC_SMP=  1.000000000000000    
_NUMSTEP=  0.000000000000000    
_ORBITAL=  2100.200000000000    
_PI=  3.141592653589793    
_ECDIAG=-0.5692482018746733E-01
_EPDIAG=-0.5692482018746733E-01
_SEIG_MIN= 0.1018464628380710E-03
_SEWPROP=TRUE
_SSQUARED=-0.5329070518200751E-14
_STATUS=  1.000000000000000    
_SYSTOT=  3.460000000000000    
_T1DIAG= 0.8224159469425101E-02
_D1DIAG= 0.1514135096267876E-01
_D2DIAG= 0.1410385524991120    
_VERSION=  2022002.000000000    
_WALLTOT=  23.50000000000000    
_DATE=03-Jun-23
_LASTORB=MCSCF
_METHODC=UCCSD
_METHODT=UCCSD(T)
_OUTPUT=/home/chimica2/cavallotti/qm/barrierless/vrc_autom/folders/ch3+h/dist_2.0/molpro.out
_PGROUP=C1
_TIME=08:51:07
_LIBMOL=/software/cinetica/molpro_2022.2/lib/
_VIGRDC=  0.000000000000000    
!VIBCNT=  0.000000000000000    
!RGHFCNT=  0.000000000000000    
!SURFREC=  0.000000000000000    
!XSURFREC=  0.000000000000000    
!XPOLYREC=  0.000000000000000    
!ROTREC=  0.000000000000000    
!POLYREC=  0.000000000000000    
!DIPREC=  0.000000000000000    
!DIP4DREC=  0.000000000000000    
!DIPROT=  0.000000000000000    
!DIP4DROT=  0.000000000000000    
!PTREC=  0.000000000000000    
!PT4DREC=  0.000000000000000    
!VSCFREC=  0.000000000000000    
!VCIREC=  0.000000000000000    
!PVCIREC=  0.000000000000000    
!VMP2REC=  0.000000000000000    
!VMCSCFREC=  0.000000000000000    
!VMRCIREC=  0.000000000000000    
!VIBSTATEREC=  0.000000000000000    
!VIBSTATECNT=  0.000000000000000    
!VIBINFO=  0.000000000000000    
!GAREC=  0.000000000000000    
!SCFORB=  21002.00000000000    
!MCORB=  21012.00000000000    
!DEFCORE=  1.000000000000000    
!SCORE=  0.000000000000000    
!UNO_OCC=  5.000000000000000    
!UNO_CLOSED=  5.000000000000000    
!NEWMOL=  0.000000000000000    
!NEWSYM=  0.000000000000000    
_SLFILES=slscratch
_NGSSTO=  9.000000000000000    
_SIN=SIN
_COS=COS
_TAN=TAN
_ACOS=ACOS
_ASIN=ASIN
_ATAN=ATAN
_COSH=COSH
_SINH=SINH
_TANH=TANH
_ABS=ABS
_MOD=MOD
_ERF=ERF
_REFC=REFC
_ERFC=ERFC
_HYPOT=HYPOT
_J0=J0
_J1=J1
_JN=JN
_GAMMA=GAMMA
_LGAMMA=LGAMMA
_Y0=Y0
_Y1=Y1
_YN=YN
_EXP=EXP
_LOG=LOG
_LOG10=LOG10
_SQRT=SQRT
_INT=INT
_NINT=NINT
_MAX=MAX
_MIN=MIN
_COSMO=  0.000000000000000    
_COSMOIT=  0.000000000000000    
_COSMOES=  0.000000000000000    
_COSMOEDS=  0.000000000000000    
_COSMOEC=  0.000000000000000    
_COSMOEDCORR=  0.000000000000000    
_FEPSI=  1.000000000000000    
_SL_IsMM=  0.000000000000000    
_SL_NSYM=  1.000000000000000    
_SL_System_BitSw=  0.000000000000000    
_SL_Unique_atoms=  0.000000000000000    
_SL_GRAD=  0.000000000000000    
_SL_MAXUPD_Hess=  5.000000000000000    
_SL_N_PRINT_COD=  5.000000000000000    
_SL_PRINT_CODES=  0.000000000000000    
_SL_BasType=  0.000000000000000    
_SL_Energy_Pred=  0.000000000000000    
_SL_New_Coords=  0.000000000000000    
_SL_Total_Nuclea=  0.000000000000000    
_SL_Highest_Mltp=  0.000000000000000    
_SL_Ref_Geom=  0.000000000000000    
_SL_Symmetry_ope=  1.000000000000000    
_SL_agrad=  0.000000000000000    
_SL_GrdMax=  0.000000000000000    
_SL_GrdNorm=  0.000000000000000    
_SL_GrdRMS=  0.000000000000000    
_SL_Hss_Q=  0.000000000000000    
_SL_Hss_X=  0.000000000000000    
_SL_BMxOld=  0.000000000000000    
_SL_KtB=  0.000000000000000    
_SL_TROld=  0.000000000000000    
_SL_No_of_Intern=  0.000000000000000    
_SL_Hess=  0.000000000000000    
_SL_K=  0.000000000000000    
!LATTICE= -1.000000000000000    
!NEWLATTICE=  0.000000000000000    
!LATGRAD_VAR=FALSE
!SEW_LATTICE=  1.000000000000000    
!AIC_ONEEL=  0.000000000000000    
!LOCAL=  0.000000000000000    
!SAVEDOM= -1.000000000000000    
!RESTDOM= -1.000000000000000    
!SAVEDOM_HF= -1.000000000000000    
!RESTDOM_HF= -1.000000000000000    
!HESSREC=  0.000000000000000    
!FREQREC=  0.000000000000000    
!NMODREC=  0.000000000000000    
!GTASKS=  0.000000000000000    
!HTASKS=  0.000000000000000    
!SAVEDOM_EOM= -1.000000000000000    
!RESTDOM_EOM= -1.000000000000000    
!GRADSTATE= -1.000000000000000    
!DEBUG=  0.000000000000000    
!CFIT_CPHF=  0.000000000000000    
!RDOMAUX_CPHF=  0.000000000000000    
!THRAO_CPHF= 0.1000000000000000E-11
!THRMO_CPHF= 0.1000000000000000E-11
!THROV_CPHF= 0.1000000000000000E-11
!THRSW_CPHF= 0.1000000000000000E-11
!THRPROD_CPHF= 0.1000000000000000E-11
!THRAOPR_CPHF= 0.1000000000000000E-11
!CFIT_SCFGRD=  0.000000000000000    
!RDOMAUX_SCFGRD=  0.000000000000000    
!THRAO_SCFGRD= 0.1000000000000000E-11
!THRMO_SCFGRD= 0.1000000000000000E-11
!THROV_SCFGRD= 0.1000000000000000E-11
!THRSW_SCFGRD= 0.1000000000000000E-11
!THRPROD_SCFGRD= 0.1000000000000000E-11
!THRAOPR_SCFGRD= 0.1000000000000000E-11
!LOCFIT_SCF=  0.000000000000000    
!LOCFIT_MP2=  0.000000000000000    
_RIDOM=  0.000000000000000    
!CC2_METHOD=  0.000000000000000    
_BASIS2006=FALSE
_SVDDEL= -1.000000000000000    
_SVDDELA= -1.000000000000000    
_SVDDELP= -1.000000000000000    
_SVDDELF= -1.000000000000000    
_SVDDELS= -1.000000000000000    
_SVDDEL_ABS= -1.000000000000000    
_SVDDELA_ABS= -1.000000000000000    
_SVDDELP_ABS= -1.000000000000000    
_SVDDELF_ABS= -1.000000000000000    
_SVDDELS_ABS= -1.000000000000000    
_MAXBASIS=  0.000000000000000    
!OPT_CONICAL=  0.000000000000000    
!CLEARSP_JGRID=  0.000000000000000    
_GRDHYBR=  0.000000000000000    
_STATEGRAD=  1.000000000000000    
_4EXT_NDISKS=  1.000000000000000    
!EMBEDFLAG=  1.000000000000000    
!EMBED=FALSE
!EMBED_F12=FALSE
!EMBEDNUC=  0.000000000000000    
_EMBEDENERGY=  0.000000000000000    
!EMBED_DFC=FALSE
!NUM_VOIDS=  0.000000000000000    
_IBODY=  0.000000000000000    
_EMBE_CORR=  0.000000000000000    
!EMBED_PROJ=FALSE
!EMB_PROJ_ZMU=  1000000.000000000    
!CORRECTION_HF=  0.000000000000000    
!EMBED_AORB=  0.000000000000000    
!EMBED_NACORR=  0.000000000000000    
!EMBED_MP2=FALSE
!EMBED_TRUNC_PERTURBATION=FALSE
!EMBED_FROZEN=  0.000000000000000    
!EMBED_ACTIVE=  0.000000000000000    
_CHANGE_BASIS=FALSE
_RESTORE_BASIS=FALSE
_FIX_EMBED_GUESS=FALSE
_EMBED_SCF=FALSE
_HUZINAGA_T=FALSE
_HUZINAGA_F=FALSE
_HUZINAGA=FALSE
_HUZINAGA_CORRECT=FALSE
!FASTLATGRAD=  1.000000000000000    
!FASTVLAMBDA= -1.000000000000000    
!IFORCE= -1.000000000000000    
!USESYM= -1.000000000000000    
_SINDEX=  0.000000000000000    
_AVDOM_OSV=  0.000000000000000    
_AVDOM_PNO=  0.000000000000000    
_AVDOM_PAO=  0.000000000000000    
_AVDOM_LMO=  0.000000000000000    
_CC2OSV_FLAG=  0.000000000000000    
_EOMCCSD_CONV=FALSE
_TMADC2_FLAG=FALSE
_PROPADC2_FLAG=FALSE
_LEN_VirQ=  0.000000000000000    
_GRDCC2LR_FLAG=FALSE
_GRDADC2_FLAG=FALSE
_DMX_CC=-0.2035674901916806E-03
_DMY_CC=-0.1081564570758475E-03
_DMZ_CC=  2.544823454780794    
_DMX_NUC= 0.4491594200009373E-04
_DMY_NUC= 0.5705502999966684E-05
_DMZ_NUC=  1.014596892130000    
_RO_VGLOBAL=  0.000000000000000    
_OPT=FALSE
_FREQ=FALSE
_HESS=FALSE
_CMRCC_callName=EMPTY
_CMRCC_callCount=  0.000000000000000    
_GECCO_CIROOT=  1.000000000000000    
_SYM_CATION=  1.000000000000000    
_MON_A=FALSE
_MON_B=FALSE
R1=  1.079100000000000    
R2=  1.079100000000000    
R3=  1.079100000000000    
A2=  117.1143000000000    
A3=  117.1221000000000    
D3=  213.1119000000000    
DH1=  106.5501000000000    
ANG1=  99.88290000000001    
BB=  2.000000000000000    
GX1=-0.7591789851237735E-05
GY1=-0.9643562079442169E-06
GZ1=-0.1714893602689684    
GX2= -1.154133021421647    
GY2=  1.644336370308098    
GZ2=-0.5214893291288552    
GX3=  2.001117513858670    
GY3= 0.1775118298386392    
GZ3=-0.5212582484450687    
GX4=-0.8467501530440322    
GY4= -1.821742638632208    
GZ4=-0.5216822540609488    
GX5=-0.1438727105471105E-03
GY5=-0.9406987572840864E-04
GZ5=  3.607962885378726    
EN_S= -40.29720803458956    
EN_T= -40.21199328324685    
EN_CC= -40.23305097089584    
CBSEN= -40.31826572223854    
[Atoms] Angs
C     1    6        -0.0000040174       -0.0000005103       -0.0907482614
H     2    1        -0.6107408933        0.8701453342       -0.2759602687
H     3    1         1.0589457847        0.0939352150       -0.2758379861
H     4    1        -0.4480808843       -0.9640246885       -0.2760623602
H     5    1        -0.0000761342       -0.0000497796        1.9092517367
[GTO]
   1 0
 s   10  1.00
  0.8236000000D+04  0.5309998617D-03
  0.1235000000D+04  0.4107998930D-02
  0.2808000000D+03  0.2108699451D-01
  0.7927000000D+02  0.8185297868D-01
  0.2559000000D+02  0.2348169388D+00
  0.8997000000D+01  0.4344008869D+00
  0.3319000000D+01  0.3461289099D+00
  0.9059000000D+00  0.3937798974D-01
  0.3643000000D+00 -0.8982997660D-02
  0.1285000000D+00  0.2384999379D-02
 s   10  1.00
  0.8236000000D+04 -0.1129999414D-03
  0.1235000000D+04 -0.8779995449D-03
  0.2808000000D+03 -0.4539997647D-02
  0.7927000000D+02 -0.1813299060D-01
  0.2559000000D+02 -0.5575997110D-01
  0.8997000000D+01 -0.1268949342D+00
  0.3319000000D+01 -0.1703519117D+00
  0.9059000000D+00  0.1403819272D+00
  0.3643000000D+00  0.5986836897D+00
  0.1285000000D+00  0.3953887950D+00
 s   10  1.00
  0.8236000000D+04  0.0000000000D+00
  0.1235000000D+04  0.0000000000D+00
  0.2808000000D+03  0.0000000000D+00
  0.7927000000D+02  0.0000000000D+00
  0.2559000000D+02  0.0000000000D+00
  0.8997000000D+01  0.0000000000D+00
  0.3319000000D+01  0.0000000000D+00
  0.9059000000D+00  0.1000000000D+01
  0.3643000000D+00  0.0000000000D+00
  0.1285000000D+00  0.0000000000D+00
 s   10  1.00
  0.8236000000D+04  0.0000000000D+00
  0.1235000000D+04  0.0000000000D+00
  0.2808000000D+03  0.0000000000D+00
  0.7927000000D+02  0.0000000000D+00
  0.2559000000D+02  0.0000000000D+00
  0.8997000000D+01  0.0000000000D+00
  0.3319000000D+01  0.0000000000D+00
  0.9059000000D+00  0.0000000000D+00
  0.3643000000D+00  0.0000000000D+00
  0.1285000000D+00  0.1000000000D+01
 s    1  1.00
  0.4402000000D-01  0.1000000000D+01
 p    5  1.00
  0.1871000000D+02  0.1403099838D-01
  0.4133000000D+01  0.8686598995D-01
  0.1200000000D+01  0.2902159664D+00
  0.3827000000D+00  0.5010079421D+00
  0.1209000000D+00  0.3434059603D+00
 p    5  1.00
  0.1871000000D+02  0.0000000000D+00
  0.4133000000D+01  0.0000000000D+00
  0.1200000000D+01  0.0000000000D+00
  0.3827000000D+00  0.1000000000D+01
  0.1209000000D+00  0.0000000000D+00
 p    5  1.00
  0.1871000000D+02  0.0000000000D+00
  0.4133000000D+01  0.0000000000D+00
  0.1200000000D+01  0.0000000000D+00
  0.3827000000D+00  0.0000000000D+00
  0.1209000000D+00  0.1000000000D+01
 p    1  1.00
  0.3569000000D-01  0.1000000000D+01
 d    1  1.00
  0.1097000000D+01  0.1000000000D+01
 d    1  1.00
  0.3180000000D+00  0.1000000000D+01
 d    1  1.00
  0.1000000000D+00  0.1000000000D+01
 f    1  1.00
  0.7610000000D+00  0.1000000000D+01
 f    1  1.00
  0.2680000000D+00  0.1000000000D+01
  
   2 0
 s    5  1.00
  0.3387000000D+02  0.6067999217D-02
  0.5095000000D+01  0.4530799416D-01
  0.1159000000D+01  0.2028219738D+00
  0.3258000000D+00  0.5039029350D+00
  0.1027000000D+00  0.3834209505D+00
 s    5  1.00
  0.3387000000D+02  0.0000000000D+00
  0.5095000000D+01  0.0000000000D+00
  0.1159000000D+01  0.0000000000D+00
  0.3258000000D+00  0.1000000000D+01
  0.1027000000D+00  0.0000000000D+00
 s    5  1.00
  0.3387000000D+02  0.0000000000D+00
  0.5095000000D+01  0.0000000000D+00
  0.1159000000D+01  0.0000000000D+00
  0.3258000000D+00  0.0000000000D+00
  0.1027000000D+00  0.1000000000D+01
 s    1  1.00
  0.2526000000D-01  0.1000000000D+01
 p    1  1.00
  0.1407000000D+01  0.1000000000D+01
 p    1  1.00
  0.3880000000D+00  0.1000000000D+01
 p    1  1.00
  0.1020000000D+00  0.1000000000D+01
 d    1  1.00
  0.1057000000D+01  0.1000000000D+01
 d    1  1.00
  0.2470000000D+00  0.1000000000D+01
  
   3 0
 s    5  1.00
  0.3387000000D+02  0.6067999217D-02
  0.5095000000D+01  0.4530799416D-01
  0.1159000000D+01  0.2028219738D+00
  0.3258000000D+00  0.5039029350D+00
  0.1027000000D+00  0.3834209505D+00
 s    5  1.00
  0.3387000000D+02  0.0000000000D+00
  0.5095000000D+01  0.0000000000D+00
  0.1159000000D+01  0.0000000000D+00
  0.3258000000D+00  0.1000000000D+01
  0.1027000000D+00  0.0000000000D+00
 s    5  1.00
  0.3387000000D+02  0.0000000000D+00
  0.5095000000D+01  0.0000000000D+00
  0.1159000000D+01  0.0000000000D+00
  0.3258000000D+00  0.0000000000D+00
  0.1027000000D+00  0.1000000000D+01
 s    1  1.00
  0.2526000000D-01  0.1000000000D+01
 p    1  1.00
  0.1407000000D+01  0.1000000000D+01
 p    1  1.00
  0.3880000000D+00  0.1000000000D+01
 p    1  1.00
  0.1020000000D+00  0.1000000000D+01
 d    1  1.00
  0.1057000000D+01  0.1000000000D+01
 d    1  1.00
  0.2470000000D+00  0.1000000000D+01
  
   4 0
 s    5  1.00
  0.3387000000D+02  0.6067999217D-02
  0.5095000000D+01  0.4530799416D-01
  0.1159000000D+01  0.2028219738D+00
  0.3258000000D+00  0.5039029350D+00
  0.1027000000D+00  0.3834209505D+00
 s    5  1.00
  0.3387000000D+02  0.0000000000D+00
  0.5095000000D+01  0.0000000000D+00
  0.1159000000D+01  0.0000000000D+00
  0.3258000000D+00  0.1000000000D+01
  0.1027000000D+00  0.0000000000D+00
 s    5  1.00
  0.3387000000D+02  0.0000000000D+00
  0.5095000000D+01  0.0000000000D+00
  0.1159000000D+01  0.0000000000D+00
  0.3258000000D+00  0.0000000000D+00
  0.1027000000D+00  0.1000000000D+01
 s    1  1.00
  0.2526000000D-01  0.1000000000D+01
 p    1  1.00
  0.1407000000D+01  0.1000000000D+01
 p    1  1.00
  0.3880000000D+00  0.1000000000D+01
 p    1  1.00
  0.1020000000D+00  0.1000000000D+01
 d    1  1.00
  0.1057000000D+01  0.1000000000D+01
 d    1  1.00
  0.2470000000D+00  0.1000000000D+01
  
   5 0
 s    5  1.00
  0.3387000000D+02  0.6067999217D-02
  0.5095000000D+01  0.4530799416D-01
  0.1159000000D+01  0.2028219738D+00
  0.3258000000D+00  0.5039029350D+00
  0.1027000000D+00  0.3834209505D+00
 s    5  1.00
  0.3387000000D+02  0.0000000000D+00
  0.5095000000D+01  0.0000000000D+00
  0.1159000000D+01  0.0000000000D+00
  0.3258000000D+00  0.1000000000D+01
  0.1027000000D+00  0.0000000000D+00
 s    5  1.00
  0.3387000000D+02  0.0000000000D+00
  0.5095000000D+01  0.0000000000D+00
  0.1159000000D+01  0.0000000000D+00
  0.3258000000D+00  0.0000000000D+00
  0.1027000000D+00  0.1000000000D+01
 s    1  1.00
  0.2526000000D-01  0.1000000000D+01
 p    1  1.00
  0.1407000000D+01  0.1000000000D+01
 p    1  1.00
  0.3880000000D+00  0.1000000000D+01
 p    1  1.00
  0.1020000000D+00  0.1000000000D+01
 d    1  1.00
  0.1057000000D+01  0.1000000000D+01
 d    1  1.00
  0.2470000000D+00  0.1000000000D+01


[MO]
 Sym=      1.1
 Ene=     -11.2190
 Spin= Alpha
 Occup=    2.000000
1 0.99985993771191
2 0.003865705160513
3 0.001973970581674
4 0.004250576347639
5 0.001911061218387
6 0.000000107630804
7 0.000000081933351
8 -0.001301422910720
9 0.000000248346981
10 0.000000053266806
11 0.000243642489232
12 0.000000297756423
13 0.000000094889543
14 -0.000615805766455
15 0.000000003644652
16 0.000000011635711
17 -0.000236213731826
18 0.000306880476390
19 0.000306991738855
20 -0.000613872215245
21 0.000000000745569
22 0.000000110500602
23 0.000000072575642
24 0.000020306854595
25 0.000019941628762
26 -0.000040248483358
27 0.000000004563056
28 -0.000000055689401
29 -0.000000030035870
30 0.000338707409216
31 0.000338486767453
32 -0.000677194176669
33 0.000000016136612
34 0.000000230771371
35 0.000000095545447
36 0.000704160838038
37 -0.000191338632567
38 0.000264047885126
39 -0.000944652434176
40 0.000256753010599
41 -0.000176999067388
42 -0.000000078466391
43 -0.000000045297114
44 -0.000177258344886
45 -0.000000039692567
46 -0.001185337505974
47 0.000322146135435
48 -0.000252687222676
49 0.001590312367710
50 -0.000432213474024
51 0.000169227747517
52 -0.000000015223927
53 0.000000009079512
54 0.000169787736652
55 0.000000075297336
56 0.000913430108841
57 0.000195243986112
58 -0.003757595483622
59 -0.000283677430117
60 -0.000178769855212
61 0.000254733845723
62 -0.000079816173353
63 -0.000447774987849
64 0.000637865057935
65 0.000034513280771
66 -0.000591945189077
67 0.000843619587126
68 -0.000391206942050
69 0.000019512594558
70 -0.000159931111311
71 0.000140418516753
72 0.000286580677167
73 -0.000049566897065
74 0.000070643827644
75 -0.000214732553279
76 -0.000234672072177
77 0.000449404625456
78 0.000031645959618
79 -0.000093418631219
80 0.000132815560312
81 0.000913363785884
82 0.000194794101780
83 -0.003758096864876
84 -0.000283654888668
85 0.000309992790727
86 0.000027503029563
87 -0.000079781541725
88 0.000776451837393
89 0.000068856366832
90 0.000034596679606
91 0.001026717743546
92 0.000091095997509
93 -0.000391256052921
94 -0.000330004306406
95 0.000189568421224
96 0.000140435885182
97 -0.000053644651195
98 0.000085898514650
99 0.000007624033073
100 -0.000253482179660
101 -0.000195972183997
102 0.000449454363657
103 -0.000005954135667
104 0.000161664292457
105 0.000014281200387
106 0.000913461206400
107 0.000195334464994
108 -0.003757507068593
109 -0.000283669629396
110 -0.000131155366668
111 -0.000282209609892
112 -0.000079845549608
113 -0.000328510876095
114 -0.000706687513791
115 0.000034418306354
116 -0.000434243338615
117 -0.000934551016398
118 -0.000391270490059
119 0.000099943856957
120 -0.000240345853420
121 0.000140401996463
122 -0.000232936346896
123 -0.000036389632954
124 -0.000078313014370
125 -0.000205860029275
126 -0.000243508189497
127 0.000449368218772
128 -0.000025691954016
129 -0.000068569027134
130 -0.000147279399144
131 -0.000398139681492
132 0.000431204936290
133 0.001487211727357
134 0.000238263663001
135 -0.000000001472305
136 -0.000000001597822
137 0.000086828014707
138 0.000000011190090
139 0.000000008699123
140 -0.000381996475400
141 -0.000000027567530
142 -0.000000005060030
143 -0.000642778816605
144 -0.000029080343955
145 -0.000029080743613
146 0.000058161087567
147 -0.000000000072811
148 -0.000000011133446
149 -0.000000005846728
150 -0.000105929300884
151 -0.000105957389041
152 0.000211886689925
153 -0.000000003719298
154 0.000000014049482
155 0.000000004033042
 Sym=      2.1
 Ene=      -0.9080
 Spin= Alpha
 Occup=    2.000000
1 -0.011577197168047
2 0.79618576660392
3 -0.017220689580178
4 0.005743853141249
5 0.012727862190527
6 0.000019495880879
7 0.000008688536954
8 -0.081943791869168
9 0.000000282149171
10 0.000000089425766
11 0.003032505635730
12 -0.000003500302659
13 -0.000000704306648
14 -0.004905484026872
15 -0.000000128231958
16 0.000000089064006
17 -0.004293163595411
18 0.005037152402951
19 0.005038505332438
20 -0.010075657735389
21 -0.000000006215895
22 0.000001652397780
23 0.000001110874471
24 0.012133373620402
25 0.012138250913075
26 -0.024271624533477
27 -0.000000071816800
28 0.000003691412865
29 0.000002458075295
30 0.003006432893938
31 0.003008001232266
32 -0.006014434126204
33 -0.000000106362660
34 0.000000429106700
35 0.000000396458219
36 0.004475783628621
37 -0.001216044780644
38 0.002638958642631
39 -0.006004088751842
40 0.001631951573844
41 -0.001769423212498
42 -0.000000805115864
43 -0.000000456297922
44 -0.001771111336343
45 -0.000000248179705
46 0.007174087107596
47 -0.001949772135629
48 -0.001496951365158
49 -0.009625042537675
50 0.002615880760371
51 0.001005621687788
52 -0.000000005331779
53 0.000000013061170
54 0.001002749319116
55 -0.000000373369547
56 0.39163425101459
57 -0.10771110116085
58 -0.16825871385415
59 -0.002497143787824
60 0.005449028188099
61 -0.007763139619483
62 0.001188738309999
63 0.000155230893206
64 -0.000220891794710
65 -0.002970270425537
66 -0.007726820301666
67 0.011008204054615
68 -0.002806548865223
69 0.000013755807859
70 0.000849497700764
71 -0.000863253508623
72 -0.001335047217634
73 0.000142108279048
74 -0.000202363516963
75 0.000607674782786
76 -0.001633399863503
77 0.001025725080718
78 0.003581072580338
79 -0.000854026257767
80 0.001217329298414
81 0.39164176943500
82 -0.10771193740884
83 -0.16825751568413
84 -0.002496486107652
85 -0.009447902799408
86 -0.000838034117741
87 0.001187673316146
88 -0.000268363098286
89 -0.000023667460686
90 -0.002970096430110
91 0.013396733380001
92 0.001188380171384
93 -0.002804373539444
94 0.001641886887884
95 -0.000778629964039
96 -0.000863256923845
97 0.000249886098343
98 -0.000246003340960
99 -0.000021804609563
100 -0.003759586950615
101 0.002733158999872
102 0.001026427950744
103 -0.000670257444513
104 0.001480578472886
105 0.000131438140666
106 0.39163180236495
107 -0.10771045407668
108 -0.16825795202692
109 -0.002497228961813
110 0.003997768756296
111 0.008600736939006
112 0.001189634347376
113 0.000113983020908
114 0.000245203968085
115 -0.002970362898856
116 -0.005668952400235
117 -0.012195797150612
118 -0.002807975915063
119 -0.000360924342227
120 0.001224160393365
121 -0.000863236051138
122 0.001085157259541
123 0.000104371680952
124 0.000224451353313
125 0.001612867804592
126 -0.002638194114107
127 0.001025326309515
128 -0.002910831023999
129 -0.000626806483745
130 -0.001349072668241
131 0.017084332065519
132 -0.002033156922830
133 0.004619548708424
134 0.004124914319370
135 0.000000056224673
136 0.000000036318322
137 -0.000397448473647
138 0.000000264355420
139 0.000000157259634
140 -0.006635149248715
141 0.000000314659749
142 0.000000144989498
143 -0.006560514345941
144 -0.000504651886392
145 -0.000504660637709
146 0.001009312524101
147 -0.000000001606006
148 -0.000000070492238
149 -0.000000047312369
150 -0.001624362254051
151 -0.001624203512043
152 0.003248565766094
153 0.000000021072486
154 -0.000000101702314
155 -0.000000043803598
 Sym=      3.1
 Ene=      -0.5725
 Spin= Alpha
 Occup=    2.000000
1 0.000000014611843
2 -0.000004756701329
3 0.000000110578106
4 -0.000002190796545
5 -0.000000911778701
6 -0.001895943936248
7 0.66566018090290
8 0.000043996945898
9 0.000056543233875
10 -0.019873003967756
11 -0.000001221892420
12 -0.000080088009425
13 0.027989402455297
14 0.000001906389500
15 -0.000042078173539
16 0.014740108050119
17 0.000000983612687
18 0.003759078101047
19 -0.003758338765785
20 -0.000000739335261
21 -0.016152162338064
22 0.000018091911935
23 -0.006565173337030
24 0.009794420808222
25 -0.009793086469683
26 -0.000001334338539
27 -0.042086185175396
28 0.000032864127000
29 -0.012094201293540
30 0.008650506442882
31 -0.008650105812236
32 -0.000000400630646
33 -0.037172568532938
34 0.000015380400334
35 -0.005913093959069
36 -0.000004096046052
37 0.001454953384511
38 -0.000000386004032
39 -0.000001983654675
40 0.000650003744327
41 -0.000220090229162
42 0.000007479077122
43 -0.002602028547444
44 0.000220608107915
45 0.000946302997149
46 -0.000005189391454
47 0.001990553896865
48 -0.000000632774915
49 -0.000003430537315
50 0.000887886639265
51 -0.000873665783984
52 0.000010392836547
53 -0.003558494935026
54 0.000874514740619
55 0.003755138057739
56 0.58101519433650
57 -0.12408950899271
58 -0.29467192213891
59 -0.010187110364090
60 0.008557315360542
61 -0.007597144123592
62 0.002540474389781
63 0.005168349537384
64 0.006958611114553
65 0.001354734216774
66 -0.012407751601878
67 0.029105830277222
68 -0.007323071611127
69 0.000978935278434
70 0.000005402115704
71 -0.000984337394138
72 -0.002313520979323
73 0.000628259447621
74 -0.000573961391361
75 0.001812333167706
76 -0.002255953947011
77 0.000443620779305
78 0.001445913039444
79 -0.000215927987877
80 0.000253456176373
81 0.060576364610179
82 -0.012936977165889
83 -0.030721074452561
84 -0.001061960509535
85 -0.001562518509462
86 0.004476256131981
87 0.000264971389860
88 -0.000982875128536
89 0.014296814885953
90 0.000142016305156
91 0.002204715292070
92 0.011669236582812
93 -0.000762411940167
94 0.000576774893215
95 -0.000474157081173
96 -0.000102617812042
97 -0.002217551397887
98 -0.000114718802317
99 0.000312142938632
100 0.000240749866116
101 -0.000287004646740
102 0.000046254780624
103 -0.002982904119633
104 0.000039080407366
105 -0.000051462072477
106 -0.64159134569128
107 0.13702759763257
108 0.32539502966170
109 0.011249253114985
110 -0.006956508133272
111 -0.010324898923781
112 -0.002806264023577
113 -0.004261209322631
114 0.005300934962602
115 -0.001494980685387
116 0.009992489459683
117 0.033044535239634
118 0.008090641684122
119 0.000034893972331
120 -0.001121733354767
121 0.001086839382437
122 -0.002303658147771
123 -0.000510855795392
124 -0.000774428408970
125 -0.001928375410752
126 0.002418198825528
127 -0.000489823414776
128 0.001000956911872
129 0.000175339406693
130 0.000322735883598
131 0.000003185806440
132 -0.000000662638547
133 -0.000001641181785
134 -0.000000095322548
135 -0.000001549064329
136 0.000540260252308
137 -0.000000088000716
138 -0.000005272347712
139 0.001848121480428
140 -0.000000274467471
141 0.000003216124511
142 -0.001100833325233
143 -0.000000139257173
144 0.000024258828388
145 -0.000024257824186
146 -0.000000001004202
147 -0.000104272843536
148 0.000001810212616
149 -0.000634728907283
150 -0.000056076351369
151 0.000055979713120
152 0.000000096638249
153 0.000240682848220
154 0.000001649070373
155 -0.000583859944433
 Sym=      4.1
 Ene=      -0.5725
 Spin= Alpha
 Occup=    2.000000
1 0.000000038841058
2 -0.000015790840976
3 0.000000377870233
4 -0.000005783769358
5 -0.000002611006140
6 0.66565975285358
7 0.001896067415372
8 0.000070829491933
9 -0.019873217548799
10 -0.000056634734181
11 -0.000001929627382
12 0.027997697621802
13 0.000079478848214
14 0.000003161323703
15 0.014743006782543
16 0.000041915285049
17 0.000001562278764
18 0.013991487095756
19 -0.013990275920108
20 -0.000001211175649
21 0.004341543556731
22 -0.006560981825302
23 -0.000019295883958
24 0.036454664167596
25 -0.036452628160976
26 -0.000002036006620
27 0.011311955461605
28 -0.012083033095641