 Entering Gaussian System, Link 0=g09
 Input=geom.com
 Output=geom.log
 Initial command:
 /software/cinetica/g09d1/g09d01/d01/build-node-6-2-59348/src/main/l1.exe "/scratch/cc/140710/Gau-7419.inp" -scrdir="/scratch/cc/140710/"
 Entering Link 1 = /software/cinetica/g09d1/g09d01/d01/build-node-6-2-59348/src/main/l1.exe PID=      7420.
  
 Copyright (c) 1988,1990,1992,1993,1995,1998,2003,2009,2013,
            Gaussian, Inc.  All Rights Reserved.
  
 This is part of the Gaussian(R) 09 program.  It is based on
 the Gaussian(R) 03 system (copyright 2003, Gaussian, Inc.),
 the Gaussian(R) 98 system (copyright 1998, Gaussian, Inc.),
 the Gaussian(R) 94 system (copyright 1995, Gaussian, Inc.),
 the Gaussian 92(TM) system (copyright 1992, Gaussian, Inc.),
 the Gaussian 90(TM) system (copyright 1990, Gaussian, Inc.),
 the Gaussian 88(TM) system (copyright 1988, Gaussian, Inc.),
 the Gaussian 86(TM) system (copyright 1986, Carnegie Mellon
 University), and the Gaussian 82(TM) system (copyright 1983,
 Carnegie Mellon University). Gaussian is a federally registered
 trademark of Gaussian, Inc.
  
 This software contains proprietary and confidential information,
 including trade secrets, belonging to Gaussian, Inc.
  
 This software is provided under written license and may be
 used, copied, transmitted, or stored only in accord with that
 written license.
  
 The following legend is applicable only to US Government
 contracts under FAR:
  
                    RESTRICTED RIGHTS LEGEND
  
 Use, reproduction and disclosure by the US Government is
 subject to restrictions as set forth in subparagraphs (a)
 and (c) of the Commercial Computer Software - Restricted
 Rights clause in FAR 52.227-19.
  
 Gaussian, Inc.
 340 Quinnipiac St., Bldg. 40, Wallingford CT 06492
  
  
 ---------------------------------------------------------------
 Warning -- This program may not be used in any manner that
 competes with the business of Gaussian, Inc. or will provide
 assistance to any competitor of Gaussian, Inc.  The licensee
 of this program is prohibited from giving any competitor of
 Gaussian, Inc. access to this program.  By using this program,
 the user acknowledges that Gaussian, Inc. is engaged in the
 business of creating and licensing software in the field of
 computational chemistry and represents and warrants to the
 licensee that it is not a competitor of Gaussian, Inc. and that
 it will not use this program in any manner prohibited above.
 ---------------------------------------------------------------
  

 Cite this work as:
 Gaussian 09, Revision D.01,
 M. J. Frisch, G. W. Trucks, H. B. Schlegel, G. E. Scuseria, 
 M. A. Robb, J. R. Cheeseman, G. Scalmani, V. Barone, B. Mennucci, 
 G. A. Petersson, H. Nakatsuji, M. Caricato, X. Li, H. P. Hratchian, 
 A. F. Izmaylov, J. Bloino, G. Zheng, J. L. Sonnenberg, M. Hada, 
 M. Ehara, K. Toyota, R. Fukuda, J. Hasegawa, M. Ishida, T. Nakajima, 
 Y. Honda, O. Kitao, H. Nakai, T. Vreven, J. A. Montgomery, Jr., 
 J. E. Peralta, F. Ogliaro, M. Bearpark, J. J. Heyd, E. Brothers, 
 K. N. Kudin, V. N. Staroverov, T. Keith, R. Kobayashi, J. Normand, 
 K. Raghavachari, A. Rendell, J. C. Burant, S. S. Iyengar, J. Tomasi, 
 M. Cossi, N. Rega, J. M. Millam, M. Klene, J. E. Knox, J. B. Cross, 
 V. Bakken, C. Adamo, J. Jaramillo, R. Gomperts, R. E. Stratmann, 
 O. Yazyev, A. J. Austin, R. Cammi, C. Pomelli, J. W. Ochterski, 
 R. L. Martin, K. Morokuma, V. G. Zakrzewski, G. A. Voth, 
 P. Salvador, J. J. Dannenberg, S. Dapprich, A. D. Daniels, 
 O. Farkas, J. B. Foresman, J. V. Ortiz, J. Cioslowski, 
 and D. J. Fox, Gaussian, Inc., Wallingford CT, 2013.
 
 ******************************************
 Gaussian 09:  EM64L-G09RevD.01 24-Apr-2013
                 3-Jun-2023 
 ******************************************
 %mem=400MW
 %chk=tmp
 %NProcShared= 32
 Will use up to   32 processors via shared memory.
 ----------------------------------------------------------------------
 # uwb97xd/aug-cc-pvtz opt=(noeig,intern,maxcyc=50) # int=ultrafine nos
 ym iop(7/33=1) guess=(mix,always)
 ----------------------------------------------------------------------
 1/6=50,10=7,11=1,14=-1,18=40,26=4,38=1/1,3;
 2/12=2,15=1,17=6,18=5,29=3,40=1/2;
 3/5=16,6=1,7=10,11=2,16=1,25=1,30=1,71=1,74=-58,75=-5,116=2/1,2,3;
 4/13=-1/1;
 5/5=2,38=5/2;
 6/7=2,8=2,9=2,10=2,28=1/1;
 7/29=1,30=1,33=1/1,2,3,16;
 1/6=50,10=7,11=1,14=-1,18=40,26=4/3(2);
 2/15=1,29=3/2;
 99//99;
 2/15=1,29=3/2;
 3/5=16,6=1,7=10,11=2,16=1,25=1,30=1,71=1,74=-58,75=-5,116=2/1,2,3;
 4/13=-1/1;
 5/5=2,38=5/2;
 7/30=1,33=1/1,2,3,16;
 1/6=50,11=1,14=-1,18=40,26=4/3(-5);
 2/15=1,29=3/2;
 6/7=2,8=2,9=2,10=2,19=2,28=1/1;
 99/9=1/99;
 ------
 geom 0
 ------
 Symbolic Z-matrix:
 Charge =  0 Multiplicity = 1
 C1
 H2                   C1   R1
 H3                   C1   R2       H2   A2
 H4                   C1   R3       H2   A3       H3   D3       0
 H21                  1    rts      2    aabs1    3    babs1    0
       Variables:
  BABS1                93.6367                   
  AABS1                92.0706                   
       Constants:
  R3                    1.0782                   
  A2                  119.9721                   
  A3                  120.0207                   
  D3                  179.8076                   
  R2                    1.0782                   
  R1                    1.0782                   
  RTS                   2.8                      
 

 GradGradGradGradGradGradGradGradGradGradGradGradGradGradGradGradGradGrad
 Berny optimization.
 Initialization pass.
                       ----------------------------
                       !    Initial Parameters    !
                       ! (Angstroms and Degrees)  !
 ----------------------                            ----------------------
 !      Name          Value   Derivative information (Atomic Units)     !
 ------------------------------------------------------------------------
 !      BABS1       93.6367   estimate D2E/DX2                          !
 !      AABS1       92.0706   estimate D2E/DX2                          !
 !       R3          1.0782   Frozen                                    !
 !       A2        119.9721   Frozen                                    !
 !       A3        120.0207   Frozen                                    !
 !       D3        179.8076   Frozen                                    !
 !       R2          1.0782   Frozen                                    !
 !       R1          1.0782   Frozen                                    !
 !       RTS         2.8      Frozen                                    !
 ------------------------------------------------------------------------
 Trust Radius=3.00D-01 FncErr=1.00D-07 GrdErr=1.00D-06
 Number of steps in this run=     50 maximum allowed number of steps=    100.
 GradGradGradGradGradGradGradGradGradGradGradGradGradGradGradGradGradGrad

 ---------------------------------------------------------------------------------------------------
                            Z-MATRIX (ANGSTROMS AND DEGREES)
   CD    Cent   Atom    N1       Length/X        N2       Alpha/Y        N3        Beta/Z          J
 ---------------------------------------------------------------------------------------------------
      1      1  C 
      2      2  H        1   1.078200(     1)
      3      3  H        1   1.078200(     2)      2  119.972(     5)
      4      4  H        1   1.078200(     3)      2  120.021(     6)      3  179.808(     8)      0
      5      5  H        1   2.800000(     4)      2   92.071(     7)      3   93.637(     9)      0
 ---------------------------------------------------------------------------------------------------
                         Z-Matrix orientation:                         
 ---------------------------------------------------------------------
 Center     Atomic      Atomic             Coordinates (Angstroms)
 Number     Number       Type             X           Y           Z
 ---------------------------------------------------------------------
      1          6           0        0.000000    0.000000    0.000000
      2          1           0        0.000000    0.000000    1.078200
      3          1           0        0.934011    0.000000   -0.538645
      4          1           0       -0.933548   -0.003135   -0.539437
      5          1           0       -0.177487   -2.792537   -0.101167
 ---------------------------------------------------------------------
                    Distance matrix (angstroms):
                    1          2          3          4          5
     1  C    0.000000
     2  H    1.078200   0.000000
     3  H    1.078200   1.867235   0.000000
     4  H    1.078200   1.867692   1.867562   0.000000
     5  H    2.800000   3.036556   3.037282   2.923093   0.000000
 Symmetry turned off by external request.
 Stoichiometry    CH4
 Framework group  C1[X(CH4)]
 Deg. of freedom     9
 Full point group                 C1      NOp   1
 Rotational constants (GHZ):    144.3146066     55.1637559     55.0920217
 Standard basis: Aug-CC-pVTZ (5D, 7F)
   138 basis functions,   180 primitive gaussians,   155 cartesian basis functions
     5 alpha electrons        5 beta electrons
       nuclear repulsion energy        11.3479102154 Hartrees.
 NAtoms=    5 NActive=    5 NUniq=    5 SFac= 1.00D+00 NAtFMM=   60 NAOKFM=F Big=F
 Integral buffers will be    131072 words long.
 Raffenetti 2 integral format.
 Two-electron integral symmetry is turned off.
 Nuclear repulsion after empirical dispersion term =       11.3472659564 Hartrees.
 One-electron integrals computed using PRISM.
 NBasis=   138 RedAO= T EigKep=  1.00D-04  NBF=   138
 NBsUse=   138 1.00D-06 EigRej= -1.00D+00 NBFU=   138
 ExpMin= 2.53D-02 ExpMax= 8.24D+03 ExpMxC= 2.81D+02 IAcc=3 IRadAn=         5 AccDes= 0.00D+00
 Harris functional with IExCor= 4639 and IRadAn=       5 diagonalized for initial guess.
 HarFok:  IExCor= 4639 AccDes= 0.00D+00 IRadAn=         5 IDoV= 1 UseB2=F ITyADJ=14
 ICtDFT=  3500011 ScaDFX=  1.000000  1.000000  1.000000  1.000000
 FoFCou: FMM=F IPFlag=           0 FMFlag=      100000 FMFlg1=           0
         NFxFlg=           0 DoJE=T BraDBF=F KetDBF=T FulRan=T
         wScrn=  0.000000 ICntrl=     500 IOpCl=  0 I1Cent=   200000004 NGrid=           0
         NMat0=    1 NMatS0=      1 NMatT0=    0 NMatD0=    1 NMtDS0=    0 NMtDT0=    0
 Symmetry not used in FoFCou.
 Mixing orbitals, IMix= 1 IMixAn=  0 NRI=1 NE=    5 Coef=  7.07106781D-01  7.07106781D-01
 Mixing orbitals, IMix= 1 IMixAn=  0 NRI=1 NE=    5 Coef= -7.07106781D-01  7.07106781D-01
 Initial guess <Sx>= 0.0000 <Sy>= 0.0000 <Sz>= 0.0000 <S**2>= 1.0000 S= 0.6180
 Keep R1 and R2 ints in memory in canonical form, NReq=186089393.
 Requested convergence on RMS density matrix=1.00D-08 within 128 cycles.
 Requested convergence on MAX density matrix=1.00D-06.
 Requested convergence on             energy=1.00D-06.
 No special actions if energy rises.
 SCF Done:  E(UwB97XD) =  -40.3450014841     A.U. after   16 cycles
            NFock= 16  Conv=0.56D-08     -V/T= 2.0078
 <Sx>= 0.0000 <Sy>= 0.0000 <Sz>= 0.0000 <S**2>= 0.9071 S= 0.5757
 <L.S>=  0.00000000000    
 Annihilation of the first spin contaminant:
 S**2 before annihilation     0.9071,   after     0.0239

 **********************************************************************

            Population analysis using the SCF density.

 **********************************************************************

 Alpha  occ. eigenvalues --  -10.30469  -0.79143  -0.51404  -0.51400  -0.32016
 Alpha virt. eigenvalues --   -0.01120   0.03897   0.05141   0.05199   0.10947
 Alpha virt. eigenvalues --    0.11705   0.12834   0.12844   0.13983   0.19519
 Alpha virt. eigenvalues --    0.19839   0.20513   0.20706   0.26448   0.30471
 Alpha virt. eigenvalues --    0.30630   0.30887   0.32930   0.32976   0.34095
 Alpha virt. eigenvalues --    0.34803   0.37772   0.38959   0.39124   0.40495
 Alpha virt. eigenvalues --    0.40633   0.41361   0.44059   0.44067   0.57523
 Alpha virt. eigenvalues --    0.59565   0.66377   0.66773   0.68820   0.73362
 Alpha virt. eigenvalues --    0.73597   0.79127   0.79247   0.80326   0.80641
 Alpha virt. eigenvalues --    0.80896   0.81484   0.86391   0.86629   0.87921
 Alpha virt. eigenvalues --    0.94093   0.94432   0.94549   0.98040   0.98714
 Alpha virt. eigenvalues --    1.00602   1.00730   1.01268   1.03540   1.06324
 Alpha virt. eigenvalues --    1.06344   1.10841   1.10845   1.15849   1.17648
 Alpha virt. eigenvalues --    1.18680   1.25865   1.36427   1.37711   1.39346
 Alpha virt. eigenvalues --    1.49888   1.49937   1.50448   1.51330   1.56595
 Alpha virt. eigenvalues --    1.56841   1.59193   1.68778   1.79224   1.79477
 Alpha virt. eigenvalues --    1.94103   1.94783   1.95924   2.05539   2.05634
 Alpha virt. eigenvalues --    2.06873   2.79158   2.79488   2.83931   2.90399
 Alpha virt. eigenvalues --    2.98997   2.99121   2.99761   3.34002   3.34053
 Alpha virt. eigenvalues --    3.37664   3.38177   3.39194   3.42602   3.43200
 Alpha virt. eigenvalues --    3.43674   3.48656   3.69462   3.70066   3.73172
 Alpha virt. eigenvalues --    3.73349   3.79650   3.79875   3.87536   3.87651
 Alpha virt. eigenvalues --    4.01740   4.01807   4.03864   4.09451   4.09545
 Alpha virt. eigenvalues --    4.15975   4.16396   4.16445   4.27809   4.47732
 Alpha virt. eigenvalues --    4.57219   4.57599   4.59952   4.60014   4.78690
 Alpha virt. eigenvalues --    4.79942   5.04615   5.04632   5.10017   5.10069
 Alpha virt. eigenvalues --    5.17816   5.18063   5.28234   6.05784   6.20805
 Alpha virt. eigenvalues --    6.21287   6.39993  15.93130
  Beta  occ. eigenvalues --  -10.29418  -0.74865  -0.50251  -0.50247  -0.39311
  Beta virt. eigenvalues --   -0.00051   0.04235   0.05225   0.05247   0.06394
  Beta virt. eigenvalues --    0.13151   0.13188   0.13440   0.14728   0.19659
  Beta virt. eigenvalues --    0.20030   0.20294   0.20551   0.25910   0.30006
  Beta virt. eigenvalues --    0.30485   0.30837   0.33070   0.33101   0.34096
  Beta virt. eigenvalues --    0.34793   0.38152   0.38352   0.39247   0.39405
  Beta virt. eigenvalues --    0.40904   0.41008   0.43962   0.44007   0.51491
  Beta virt. eigenvalues --    0.58916   0.66563   0.66922   0.70878   0.73938
  Beta virt. eigenvalues --    0.74161   0.80067   0.80199   0.80370   0.81786
  Beta virt. eigenvalues --    0.81936   0.82406   0.86343   0.86419   0.88308
  Beta virt. eigenvalues --    0.92359   0.92707   0.92807   0.97282   0.97483
  Beta virt. eigenvalues --    1.00520   1.00670   1.00744   1.03414   1.06377
  Beta virt. eigenvalues --    1.06535   1.10863   1.11160   1.15024   1.17751
  Beta virt. eigenvalues --    1.18713   1.23568   1.36535   1.37866   1.39059
  Beta virt. eigenvalues --    1.50357   1.50384   1.50549   1.51463   1.57101
  Beta virt. eigenvalues --    1.57351   1.60663   1.69848   1.79818   1.80068
  Beta virt. eigenvalues --    1.95151   1.95692   1.95818   2.05793   2.05869
  Beta virt. eigenvalues --    2.08944   2.49239   2.80636   2.80821   2.90410
  Beta virt. eigenvalues --    3.00441   3.02088   3.02262   3.36503   3.36592
  Beta virt. eigenvalues --    3.40593   3.41123   3.41764   3.42995   3.44480
  Beta virt. eigenvalues --    3.45041   3.50645   3.68196   3.68720   3.70577
  Beta virt. eigenvalues --    3.71372   3.73362   3.73615   3.75826   3.76009
  Beta virt. eigenvalues --    3.84480   3.84503   3.92346   4.02331   4.02776
  Beta virt. eigenvalues --    4.06406   4.16867   4.17091   4.17437   4.47085
  Beta virt. eigenvalues --    4.57458   4.57745   4.60116   4.60141   4.78224
  Beta virt. eigenvalues --    4.81795   5.04995   5.05011   5.12909   5.12975
  Beta virt. eigenvalues --    5.18382   5.18625   5.29495   6.06985   6.21369
  Beta virt. eigenvalues --    6.21844   6.40847  15.95630
          Condensed to atoms (all electrons):
               1          2          3          4          5
     1  C    6.051810   0.335030   0.335091   0.331319   0.043442
     2  H    0.335030   0.280661   0.009318   0.009620  -0.002723
     3  H    0.335091   0.009318   0.280686   0.009622  -0.002716
     4  H    0.331319   0.009620   0.009622   0.280674  -0.003533
     5  H    0.043442  -0.002723  -0.002716  -0.003533   0.977227
          Atomic-Atomic Spin Densities.
               1          2          3          4          5
     1  C    0.924983   0.015963   0.015900   0.015635  -0.005063
     2  H    0.015963  -0.028023   0.001089   0.000978   0.003967
     3  H    0.015900   0.001089  -0.028073   0.000979   0.003957
     4  H    0.015635   0.000978   0.000979  -0.027770   0.005082
     5  H   -0.005063   0.003967   0.003957   0.005082  -0.958094
 Mulliken charges and spin densities:
               1          2
     1  C   -1.096692   0.967419
     2  H    0.368094  -0.006026
     3  H    0.367998  -0.006148
     4  H    0.372298  -0.005095
     5  H   -0.011698  -0.950150
 Sum of Mulliken charges =  -0.00000  -0.00000
 Mulliken charges and spin densities with hydrogens summed into heavy atoms:
               1          2
     1  C   -0.000000  -0.000000
 Electronic spatial extent (au):  <R**2>=             61.4787
 Charge=             -0.0000 electrons
 Dipole moment (field-independent basis, Debye):
    X=              0.0162    Y=              0.3190    Z=              0.0092  Tot=              0.3195
 Quadrupole moment (field-independent basis, Debye-Ang):
   XX=             -8.6311   YY=            -11.0204   ZZ=             -8.6309
   XY=             -0.0206   XZ=              0.0004   YZ=             -0.0116
 Traceless Quadrupole moment (field-independent basis, Debye-Ang):
   XX=              0.7964   YY=             -1.5929   ZZ=              0.7966
   XY=             -0.0206   XZ=              0.0004   YZ=             -0.0116
 Octapole moment (field-independent basis, Debye-Ang**2):
  XXX=              0.7965  YYY=             13.6000  ZZZ=              1.4047  XYY=              0.3119
  XXY=              4.2555  XXZ=             -0.7996  XZZ=              0.2644  YZZ=              4.2564
  YYZ=              0.1778  XYZ=             -0.0009
 Hexadecapole moment (field-independent basis, Debye-Ang**3):
 XXXX=            -17.1855 YYYY=            -84.6859 ZZZZ=            -17.0006 XXXY=             -2.2015
 XXXZ=             -0.0777 YYYX=             -2.2691 YYYZ=             -1.2932 ZZZX=             -0.0781
 ZZZY=             -1.2597 XXYY=            -17.2701 XXZZ=             -5.6974 YYZZ=            -17.2351
 XXYZ=             -0.4133 YYXZ=             -0.0296 ZZXY=             -0.7338
 N-N= 1.134726595644D+01 E-N=-1.155172307115D+02  KE= 4.003227590429D+01
                          Isotropic Fermi Contact Couplings
        Atom                 a.u.       MegaHertz       Gauss      10(-4) cm-1
     1  C(13)              0.00920       5.17169       1.84539       1.72509
     2  H(1)              -0.01359     -30.37090     -10.83709     -10.13064
     3  H(1)              -0.01359     -30.37644     -10.83907     -10.13249
     4  H(1)              -0.01382     -30.89532     -11.02422     -10.30557
     5  H(1)              -0.28158    -629.31003    -224.55346    -209.91523
 --------------------------------------------------------
       Center         ----  Spin Dipole Couplings  ----
                      3XX-RR        3YY-RR        3ZZ-RR
 --------------------------------------------------------
     1   Atom       -0.531775      1.063380     -0.531605
     2   Atom       -0.068825     -0.004707      0.073532
     3   Atom        0.037673     -0.004695     -0.032978
     4   Atom        0.038792     -0.006334     -0.032458
     5   Atom       -0.008821      0.017739     -0.008918
 --------------------------------------------------------
                        XY            XZ            YZ
 --------------------------------------------------------
     1   Atom       -0.004823     -0.000191     -0.002760
     2   Atom       -0.000888     -0.000369     -0.005470
     3   Atom       -0.005179     -0.061793      0.001969
     4   Atom        0.004471      0.061816      0.002592
     5   Atom        0.001992      0.000082      0.001135
 --------------------------------------------------------


 ---------------------------------------------------------------------------------
              Anisotropic Spin Dipole Couplings in Principal Axis System
 ---------------------------------------------------------------------------------

       Atom             a.u.   MegaHertz   Gauss  10(-4) cm-1        Axes

              Baa    -0.5319   -71.378   -25.470   -23.809  0.8403  0.0035  0.5422
     1 C(13)  Bbb    -0.5315   -71.320   -25.449   -23.790 -0.5422 -0.0002  0.8403
              Bcc     1.0634   142.698    50.918    47.599 -0.0030  1.0000 -0.0017
 
              Baa    -0.0688   -36.729   -13.106   -12.251  0.9999  0.0141  0.0031
     2 H(1)   Bbb    -0.0051    -2.707    -0.966    -0.903 -0.0143  0.9975  0.0693
              Bcc     0.0739    39.437    14.072    13.155 -0.0021 -0.0694  0.9976
 
              Baa    -0.0688   -36.731   -13.107   -12.252  0.5023  0.0140  0.8646
     3 H(1)   Bbb    -0.0051    -2.701    -0.964    -0.901  0.0530  0.9975 -0.0470
              Bcc     0.0739    39.432    14.070    13.153  0.8631 -0.0694 -0.5003
 
              Baa    -0.0682   -36.377   -12.980   -12.134 -0.5003 -0.0001  0.8658
     4 H(1)   Bbb    -0.0067    -3.555    -1.269    -1.186 -0.0551  0.9980 -0.0317
              Bcc     0.0748    39.932    14.249    13.320  0.8641  0.0635  0.4993
 
              Baa    -0.0090    -4.786    -1.708    -1.597  0.8792 -0.0855  0.4687
     5 H(1)   Bbb    -0.0090    -4.783    -1.707    -1.595 -0.4706 -0.0024  0.8823
              Bcc     0.0179     9.570     3.415     3.192  0.0743  0.9963  0.0423
 

 ---------------------------------------------------------------------------------

 DipInt: DoE/N= T T RetVal/Mat= T F Init=T NMatP=  1 IDeriv=0 Min/MaxMlt=  1  1
 Entering OneElI...
 Multipole integrals L=1 to 1 MinM= 0 MaxM= 0.
 Requested accuracy = 0.1000D-12
 PrsmSu:  NPrtUS=   1 ThrOK=F IAlg=1 NPAlg=1 LenDen=           0.
 Prism:   IPart=     0 DynPar=F LinDyn=F Incr=          12.
 PRISM was handed   419323584 working-precision words and  1275 shell-pairs
 IPart=  0 NShTot=        1275 NBatch=          39 AvBLen=        32.7
 PrSmSu:  NxtVal=             13.
 Entering OneElI...
 Calculate overlap and kinetic energy integrals
    NBasis = 155  MinDer = 1  MaxDer = 1
 Requested accuracy = 0.1000D-12
 PrsmSu:  NPrtUS=  32 ThrOK=T IAlg=1 NPAlg=1 LenDen=           0.
 Prism:   IPart=     0 DynPar=F LinDyn=F Incr=           1.
 PRISM was handed    13082643 working-precision words and  1275 shell-pairs
 PRISM was handed    13082643 working-precision words and  1275 shell-pairs
 PRISM was handed    13082643 working-precision words and  1275 shell-pairs
 PRISM was handed    13082643 working-precision words and  1275 shell-pairs
 PRISM was handed    13082643 working-precision words and  1275 shell-pairs
 PRISM was handed    13082643 working-precision words and  1275 shell-pairs
 PRISM was handed    13082643 working-precision words and  1275 shell-pairs
 PRISM was handed    13082643 working-precision words and  1275 shell-pairs
 PRISM was handed    13082643 working-precision words and  1275 shell-pairs
 PRISM was handed    13082643 working-precision words and  1275 shell-pairs
 PRISM was handed    13082643 working-precision words and  1275 shell-pairs
 PRISM was handed    13082643 working-precision words and  1275 shell-pairs
 PRISM was handed    13082643 working-precision words and  1275 shell-pairs
 PRISM was handed    13082643 working-precision words and  1275 shell-pairs
 PRISM was handed    13082643 working-precision words and  1275 shell-pairs
 PRISM was handed    13082643 working-precision words and  1275 shell-pairs
 PRISM was handed    13082643 working-precision words and  1275 shell-pairs
 PRISM was handed    13082643 working-precision words and  1275 shell-pairs
 PRISM was handed    13082643 working-precision words and  1275 shell-pairs
 PRISM was handed    13082643 working-precision words and  1275 shell-pairs
 PRISM was handed    13082643 working-precision words and  1275 shell-pairs
 PRISM was handed    13082643 working-precision words and  1275 shell-pairs
 PRISM was handed    13082643 working-precision words and  1275 shell-pairs
 PRISM was handed    13082643 working-precision words and  1275 shell-pairs
 PRISM was handed    13082643 working-precision words and  1275 shell-pairs
 PRISM was handed    13082643 working-precision words and  1275 shell-pairs
 PRISM was handed    13082643 working-precision words and  1275 shell-pairs
 PRISM was handed    13082643 working-precision words and  1275 shell-pairs
 PRISM was handed    13082643 working-precision words and  1275 shell-pairs
 PRISM was handed    13082643 working-precision words and  1275 shell-pairs
 PRISM was handed    13082643 working-precision words and  1275 shell-pairs
 PRISM was handed    13082643 working-precision words and  1275 shell-pairs
 IPart= 23 NShTot=          34 NBatch=          11 AvBLen=         3.1
 IPart= 31 NShTot=          29 NBatch=           9 AvBLen=         3.2
 IPart= 20 NShTot=          35 NBatch=          12 AvBLen=         2.9
 IPart= 18 NShTot=          35 NBatch=          12 AvBLen=         2.9
 IPart= 28 NShTot=          31 NBatch=          11 AvBLen=         2.8
 IPart= 21 NShTot=          35 NBatch=          12 AvBLen=         2.9
 IPart= 12 NShTot=          40 NBatch=          17 AvBLen=         2.4
 IPart=  8 NShTot=          45 NBatch=          20 AvBLen=         2.3
 IPart=  0 NShTot=          67 NBatch=          38 AvBLen=         1.8
 IPart= 29 NShTot=          31 NBatch=          11 AvBLen=         2.8
 IPart= 19 NShTot=          35 NBatch=          12 AvBLen=         2.9
 IPart=  2 NShTot=          55 NBatch=          28 AvBLen=         2.0
 IPart= 14 NShTot=          40 NBatch=          17 AvBLen=         2.4
 IPart=  4 NShTot=          49 NBatch=          22 AvBLen=         2.2
 IPart= 16 NShTot=          35 NBatch=          12 AvBLen=         2.9
 IPart= 27 NShTot=          32 NBatch=          11 AvBLen=         2.9
 IPart=  6 NShTot=          46 NBatch=          21 AvBLen=         2.2
 IPart= 10 NShTot=          45 NBatch=          20 AvBLen=         2.3
 IPart= 25 NShTot=          32 NBatch=          11 AvBLen=         2.9
 IPart=  5 NShTot=          46 NBatch=          21 AvBLen=         2.2
 IPart= 15 NShTot=          35 NBatch=          12 AvBLen=         2.9
 IPart=  1 NShTot=          59 NBatch=          31 AvBLen=         1.9
 IPart= 11 NShTot=          41 NBatch=          17 AvBLen=         2.4
 IPart= 22 NShTot=          34 NBatch=          11 AvBLen=         3.1
 IPart=  3 NShTot=          50 NBatch=          23 AvBLen=         2.2
 IPart= 24 NShTot=          32 NBatch=          11 AvBLen=         2.9
 IPart=  7 NShTot=          46 NBatch=          21 AvBLen=         2.2
 IPart= 13 NShTot=          40 NBatch=          17 AvBLen=         2.4
 IPart= 26 NShTot=          32 NBatch=          11 AvBLen=         2.9
 IPart= 17 NShTot=          35 NBatch=          12 AvBLen=         2.9
 IPart=  9 NShTot=          45 NBatch=          20 AvBLen=         2.3
 IPart= 30 NShTot=          29 NBatch=           9 AvBLen=         3.2
 PrSmSu:  NxtVal=             33.
 Entering OneElI...
 Calculate potential energy integrals
    NBasis = 155  MinDer = 1  MaxDer = 1
 Requested accuracy = 0.1000D-12
 PrsmSu:  NPrtUS=  32 ThrOK=T IAlg=1 NPAlg=1 LenDen=           0.
 Prism:   IPart=     0 DynPar=F LinDyn=F Incr=           1.
 PRISM was handed    13084099 working-precision words and  1274 shell-pairs
 PRISM was handed    13084099 working-precision words and  1274 shell-pairs
 PRISM was handed    13084099 working-precision words and  1274 shell-pairs
 PRISM was handed    13084099 working-precision words and  1274 shell-pairs
 PRISM was handed    13084099 working-precision words and  1274 shell-pairs
 PRISM was handed    13084099 working-precision words and  1274 shell-pairs
 PRISM was handed    13084099 working-precision words and  1274 shell-pairs
 PRISM was handed    13084099 working-precision words and  1274 shell-pairs
 PRISM was handed    13084099 working-precision words and  1274 shell-pairs
 PRISM was handed    13084099 working-precision words and  1274 shell-pairs
 PRISM was handed    13084099 working-precision words and  1274 shell-pairs
 PRISM was handed    13084099 working-precision words and  1274 shell-pairs
 PRISM was handed    13084099 working-precision words and  1274 shell-pairs
 PRISM was handed    13084099 working-precision words and  1274 shell-pairs
 PRISM was handed    13084099 working-precision words and  1274 shell-pairs
 PRISM was handed    13084099 working-precision words and  1274 shell-pairs
 PRISM was handed    13084099 working-precision words and  1274 shell-pairs
 PRISM was handed    13084099 working-precision words and  1274 shell-pairs
 PRISM was handed    13084099 working-precision words and  1274 shell-pairs
 PRISM was handed    13084099 working-precision words and  1274 shell-pairs
 PRISM was handed    13084099 working-precision words and  1274 shell-pairs
 PRISM was handed    13084099 working-precision words and  1274 shell-pairs
 PRISM was handed    13084099 working-precision words and  1274 shell-pairs
 PRISM was handed    13084099 working-precision words and  1274 shell-pairs
 PRISM was handed    13084099 working-precision words and  1274 shell-pairs
 PRISM was handed    13084099 working-precision words and  1274 shell-pairs
 PRISM was handed    13084099 working-precision words and  1274 shell-pairs
 PRISM was handed    13084099 working-precision words and  1274 shell-pairs
 PRISM was handed    13084099 working-precision words and  1274 shell-pairs
 PRISM was handed    13084099 working-precision words and  1274 shell-pairs
 PRISM was handed    13084099 working-precision words and  1274 shell-pairs
 PRISM was handed    13084099 working-precision words and  1274 shell-pairs
 IPart= 30 NShTot=         145 NBatch=          29 AvBLen=         5.0
 IPart= 26 NShTot=         165 NBatch=          33 AvBLen=         5.0
 IPart= 17 NShTot=         175 NBatch=          35 AvBLen=         5.0
 IPart= 28 NShTot=         155 NBatch=          31 AvBLen=         5.0
 IPart= 24 NShTot=         165 NBatch=          33 AvBLen=         5.0
 IPart=  7 NShTot=         230 NBatch=          46 AvBLen=         5.0
 IPart=  3 NShTot=         250 NBatch=          50 AvBLen=         5.0
 IPart= 13 NShTot=         200 NBatch=          40 AvBLen=         5.0
 IPart= 11 NShTot=         200 NBatch=          40 AvBLen=         5.0
 IPart=  9 NShTot=         220 NBatch=          44 AvBLen=         5.0
 IPart= 22 NShTot=         170 NBatch=          34 AvBLen=         5.0
 IPart=  5 NShTot=         240 NBatch=          48 AvBLen=         5.0
 IPart= 15 NShTot=         175 NBatch=          35 AvBLen=         5.0
 IPart= 31 NShTot=         145 NBatch=          29 AvBLen=         5.0
 IPart= 20 NShTot=         175 NBatch=          35 AvBLen=         5.0
 IPart=  1 NShTot=         300 NBatch=          60 AvBLen=         5.0
 IPart=  0 NShTot=         340 NBatch=          68 AvBLen=         5.0
 IPart=  4 NShTot=         245 NBatch=          49 AvBLen=         5.0
 IPart= 12 NShTot=         200 NBatch=          40 AvBLen=         5.0
 IPart= 16 NShTot=         175 NBatch=          35 AvBLen=         5.0
 IPart=  6 NShTot=         230 NBatch=          46 AvBLen=         5.0
 IPart= 14 NShTot=         185 NBatch=          37 AvBLen=         5.0
 IPart=  2 NShTot=         280 NBatch=          56 AvBLen=         5.0
 IPart= 19 NShTot=         175 NBatch=          35 AvBLen=         5.0
 IPart= 27 NShTot=         165 NBatch=          33 AvBLen=         5.0
 IPart= 21 NShTot=         175 NBatch=          35 AvBLen=         5.0
 IPart= 23 NShTot=         170 NBatch=          34 AvBLen=         5.0
 IPart= 18 NShTot=         175 NBatch=          35 AvBLen=         5.0
 IPart= 25 NShTot=         165 NBatch=          33 AvBLen=         5.0
 IPart= 29 NShTot=         155 NBatch=          31 AvBLen=         5.0
 IPart= 10 NShTot=         205 NBatch=          41 AvBLen=         5.0
 IPart=  8 NShTot=         220 NBatch=          44 AvBLen=         5.0
 PrSmSu:  NxtVal=             33.
 l701 out
 I=    0 X=   6.369524548259D-03 Y=   1.254943657243D-01 Z=   3.617560770819D-03
 I=    1 X=   1.118049260341D-02 Y=   3.000514108983D-01 Z=   6.819956937890D-03
 I=    2 X=   5.399276711152D-03 Y=   3.493741792918D-02 Z=   2.319886627427D+00
 I=    3 X=   2.012429040419D+00 Y=   3.479203269157D-02 Z=  -1.154396847186D+00
 I=    4 X=  -2.002082364770D+00 Y=   3.033462775172D-02 Z=  -1.156963193506D+00
 I=    5 X=  -2.692644496347D-02 Y=  -4.001154892708D-01 Z=  -1.534654367386D-02
 ICntrl=      2127.
 Calling FoFJK, ICntrl=      2127 FMM=F ISym2X=0 I1Cent= 0 IOpClX= 1 NMat=1 NMatS=1 NMatT=0.
 FoFJK:  IHMeth= 1 ICntrl=    2127 DoSepK=T KAlg= 0 I1Cent=   0 FoldK=F
 IRaf=         1 NMat=   1 IRICut=       1 DoRegI=T DoRafI=F ISym2E= 0.
 FoFCou: FMM=F IPFlag=           0 FMFlag=      100000 FMFlg1=         800
         NFxFlg=           0 DoJE=F BraDBF=F KetDBF=F FulRan=T
         wScrn=  0.000000 ICntrl=    2527 IOpCl=  0 I1Cent=           0 NGrid=           0
         NMat0=    1 NMatS0=      1 NMatT0=    0 NMatD0=    1 NMtDS0=    0 NMtDT0=    0
 Symmetry not used in FoFCou.
 FoFCou:  KetSym=F NOpSet=  1 NOpAb=1 NOp=  1.
 FoFCou:  CnvScl= 1.00D+00 Thresh= 1.00D-10 IAcrcy=      10.
 PrismS was handed   419298596 working-precision words and  1275 shell-pairs
 FoFCou: LinMIO=F DoNuc=F BraDBF=F KetDBF=F HaveP=T PDBF=F HaveZ=T HaveW=F
         NIJTC =      10 NIJTAt=       0 NIJTCD=       0 NIJTT =      10
         IJTBeg=       1 IJTEnd=      10 KLTBeg=       1 KLTEnd=      10
         IPTBeg=       1 IPTEnd=      10 IPTBCv=       1 IPTECv=      10
         IZTBeg=       1 IZTEnd=      10 IZTBCv=       1 IZTECv=      10
         IWTBeg=      11 IWTEnd=      10 IWTBCv=      11 IWTECv=      10
         INTBeg=       1 INTEnd=       0 IFTBCv=       1 IFTECv=      10
 NCel replicated for PrismC:     1
 CoulSu:  IncDef=  1024 NBBP=         813450 NTPThr=   100 NPartT=   32 Incr=         254 LDynOK=F.
 CoulSu:  NPrtUS=  32 ThrOK=T IAlg=1 NPAlg=1 LenDen=           0 LWGrdD=           0 DoCopy=F.
 Enter PrismC: JobTyp=21 DoJE=F Cont=F.
 PrismC:  IPart=     0 DynPar=T LinDyn=F Incr=         254 UseFst=F UseS4=T IGathr=2.
 Enter PrismC: JobTyp=21 DoJE=F Cont=F.
 Enter PrismC: JobTyp=21 DoJE=F Cont=F.
 Enter PrismC: JobTyp=21 DoJE=F Cont=F.
 Enter PrismC: JobTyp=21 DoJE=F Cont=F.
 Enter PrismC: JobTyp=21 DoJE=F Cont=F.
 PrismC was handed    13082987 working-precision words and  1275 shell-pairs
 PrismC was handed    13082987 working-precision words and  1275 shell-pairs
 Enter PrismC: JobTyp=21 DoJE=F Cont=F.
 Enter PrismC: JobTyp=21 DoJE=F Cont=F.
 Enter PrismC: JobTyp=21 DoJE=F Cont=F.
 Enter PrismC: JobTyp=21 DoJE=F Cont=F.
 Enter PrismC: JobTyp=21 DoJE=F Cont=F.
 Enter PrismC: JobTyp=21 DoJE=F Cont=F.
 Enter PrismC: JobTyp=21 DoJE=F Cont=F.
 Enter PrismC: JobTyp=21 DoJE=F Cont=F.
 Enter PrismC: JobTyp=21 DoJE=F Cont=F.
 Enter PrismC: JobTyp=21 DoJE=F Cont=F.
 Enter PrismC: JobTyp=21 DoJE=F Cont=F.
 Enter PrismC: JobTyp=21 DoJE=F Cont=F.
 Enter PrismC: JobTyp=21 DoJE=F Cont=F.
 Enter PrismC: JobTyp=21 DoJE=F Cont=F.
 Enter PrismC: JobTyp=21 DoJE=F Cont=F.
 Enter PrismC: JobTyp=21 DoJE=F Cont=F.
 Enter PrismC: JobTyp=21 DoJE=F Cont=F.
 PrismC was handed    13082987 working-precision words and  1275 shell-pairs
 Enter PrismC: JobTyp=21 DoJE=F Cont=F.
 PrismC was handed    13082987 working-precision words and  1275 shell-pairs
 Enter PrismC: JobTyp=21 DoJE=F Cont=F.
 Enter PrismC: JobTyp=21 DoJE=F Cont=F.
 PrismC was handed    13082987 working-precision words and  1275 shell-pairs
 Enter PrismC: JobTyp=21 DoJE=F Cont=F.
 PrismC was handed    13082987 working-precision words and  1275 shell-pairs
 Enter PrismC: JobTyp=21 DoJE=F Cont=F.
 PrismC was handed    13082987 working-precision words and  1275 shell-pairs
 Enter PrismC: JobTyp=21 DoJE=F Cont=F.
 PrismC was handed    13082987 working-precision words and  1275 shell-pairs
 Enter PrismC: JobTyp=21 DoJE=F Cont=F.
 PrismC was handed    13082987 working-precision words and  1275 shell-pairs
 Enter PrismC: JobTyp=21 DoJE=F Cont=F.
 PrismC was handed    13082987 working-precision words and  1275 shell-pairs
 PrismC was handed    13082987 working-precision words and  1275 shell-pairs
 PrismC was handed    13082987 working-precision words and  1275 shell-pairs
 PrismC was handed    13082987 working-precision words and  1275 shell-pairs
 Enter PrismC: JobTyp=21 DoJE=F Cont=F.
 PrismC was handed    13082987 working-precision words and  1275 shell-pairs
 PrismC was handed    13082987 working-precision words and  1275 shell-pairs
 PrismC was handed    13082987 working-precision words and  1275 shell-pairs
 PrismC was handed    13082987 working-precision words and  1275 shell-pairs
 PrismC was handed    13082987 working-precision words and  1275 shell-pairs
 PrismC was handed    13082987 working-precision words and  1275 shell-pairs
 PrismC was handed    13082987 working-precision words and  1275 shell-pairs
 PrismC was handed    13082987 working-precision words and  1275 shell-pairs
 PrismC was handed    13082987 working-precision words and  1275 shell-pairs
 PrismC was handed    13082987 working-precision words and  1275 shell-pairs
 PrismC was handed    13082987 working-precision words and  1275 shell-pairs
 PrismC was handed    13082987 working-precision words and  1275 shell-pairs
 PrismC was handed    13082987 working-precision words and  1275 shell-pairs
 PrismC was handed    13082987 working-precision words and  1275 shell-pairs
 PrismC was handed    13082987 working-precision words and  1275 shell-pairs
 PrismC was handed    13082987 working-precision words and  1275 shell-pairs
 PrismC was handed    13082987 working-precision words and  1275 shell-pairs
 PrismC was handed    13082987 working-precision words and  1275 shell-pairs
 PrismC was handed    13082987 working-precision words and  1275 shell-pairs
 IPart= 14 NShTot=       23646 NShNF=       23646 NShFF=           0 NBatch=         211 AvBLen=       112.1
 IPart= 11 NShTot=       24538 NShNF=       24538 NShFF=           0 NBatch=         270 AvBLen=        90.9
 IPart= 16 NShTot=       24488 NShNF=       24488 NShFF=           0 NBatch=         262 AvBLen=        93.5
 IPart= 15 NShTot=       27858 NShNF=       27858 NShFF=           0 NBatch=         258 AvBLen=       108.0
 IPart= 19 NShTot=       20811 NShNF=       20811 NShFF=           0 NBatch=         250 AvBLen=        83.2
 IPart= 28 NShTot=       25269 NShNF=       25269 NShFF=           0 NBatch=         267 AvBLen=        94.6
 IPart= 27 NShTot=       23081 NShNF=       23081 NShFF=           0 NBatch=         269 AvBLen=        85.8
 IPart= 22 NShTot=       25313 NShNF=       25313 NShFF=           0 NBatch=         256 AvBLen=        98.9
 IPart= 18 NShTot=       21906 NShNF=       21906 NShFF=           0 NBatch=         214 AvBLen=       102.4
 IPart= 24 NShTot=       28141 NShNF=       28141 NShFF=           0 NBatch=         261 AvBLen=       107.8
 IPart=  2 NShTot=       20935 NShNF=       20935 NShFF=           0 NBatch=         234 AvBLen=        89.5
 IPart=  3 NShTot=       27340 NShNF=       27340 NShFF=           0 NBatch=         259 AvBLen=       105.6
 IPart=  8 NShTot=       22020 NShNF=       22020 NShFF=           0 NBatch=         238 AvBLen=        92.5
 IPart= 20 NShTot=       22632 NShNF=       22632 NShFF=           0 NBatch=         278 AvBLen=        81.4
 IPart= 29 NShTot=       23626 NShNF=       23626 NShFF=           0 NBatch=         249 AvBLen=        94.9
 IPart= 31 NShTot=       25879 NShNF=       25879 NShFF=           0 NBatch=         258 AvBLen=       100.3
 IPart=  1 NShTot=       24236 NShNF=       24236 NShFF=           0 NBatch=         219 AvBLen=       110.7
 IPart=  7 NShTot=       24660 NShNF=       24660 NShFF=           0 NBatch=         270 AvBLen=        91.3
 IPart=  6 NShTot=       24414 NShNF=       24414 NShFF=           0 NBatch=         253 AvBLen=        96.5
 IPart= 13 NShTot=       23709 NShNF=       23709 NShFF=           0 NBatch=         178 AvBLen=       133.2
 IPart=  9 NShTot=       25467 NShNF=       25467 NShFF=           0 NBatch=         267 AvBLen=        95.4
 IPart= 10 NShTot=       23211 NShNF=       23211 NShFF=           0 NBatch=         232 AvBLen=       100.0
 IPart=  0 NShTot=       23729 NShNF=       23729 NShFF=           0 NBatch=         199 AvBLen=       119.2
 IPart= 30 NShTot=       23773 NShNF=       23773 NShFF=           0 NBatch=         264 AvBLen=        90.0
 IPart= 23 NShTot=       23966 NShNF=       23966 NShFF=           0 NBatch=         254 AvBLen=        94.4
 IPart= 17 NShTot=       27408 NShNF=       27408 NShFF=           0 NBatch=         256 AvBLen=       107.1
 IPart= 21 NShTot=       23040 NShNF=       23040 NShFF=           0 NBatch=         246 AvBLen=        93.7
 IPart= 12 NShTot=       26546 NShNF=       26546 NShFF=           0 NBatch=         241 AvBLen=       110.1
 IPart= 25 NShTot=       22571 NShNF=       22571 NShFF=           0 NBatch=         223 AvBLen=       101.2
 IPart=  4 NShTot=       24591 NShNF=       24591 NShFF=           0 NBatch=         250 AvBLen=        98.4
 IPart= 26 NShTot=       26534 NShNF=       26534 NShFF=           0 NBatch=         258 AvBLen=       102.8
 IPart=  5 NShTot=       24964 NShNF=       24964 NShFF=           0 NBatch=         283 AvBLen=        88.2
 CoulSu:  NxtVal=         897891.
 FoFCou: FMM=F IPFlag=           0 FMFlag=      100000 FMFlg1=         800
         NFxFlg=           0 DoJE=F BraDBF=F KetDBF=F FulRan=T
         wScrn=  0.000000 ICntrl=    2127 IOpCl=  1 I1Cent=           0 NGrid=           0
         NMat0=    1 NMatS0=      0 NMatT0=    1 NMatD0=    1 NMtDS0=    0 NMtDT0=    0
         CW=    0.222036    0.777964
         WU=    0.000000   12.500000
 Symmetry not used in FoFCou.
 FoFCou:  KetSym=F NOpSet=  1 NOpAb=1 NOp=  1.
 FoFCou:  CnvScl= 1.00D+00 Thresh= 1.00D-10 IAcrcy=      10.
 PrismS was handed   419297356 working-precision words and  1275 shell-pairs
 FoFCou: LinMIO=F DoNuc=F BraDBF=F KetDBF=F HaveP=T PDBF=F HaveZ=T HaveW=F
         NIJTC =      10 NIJTAt=       0 NIJTCD=       0 NIJTT =      10
         IJTBeg=       1 IJTEnd=      10 KLTBeg=       1 KLTEnd=      10
         IPTBeg=       1 IPTEnd=      10 IPTBCv=       1 IPTECv=      10
         IZTBeg=       1 IZTEnd=      10 IZTBCv=       1 IZTECv=      10
         IWTBeg=      11 IWTEnd=      10 IWTBCv=      11 IWTECv=      10
         INTBeg=       1 INTEnd=       0 IFTBCv=       1 IFTECv=      10
 NCel replicated for PrismC:     1
 CoulSu:  IncDef=  1024 NBBP=         813450 NTPThr=   100 NPartT=   32 Incr=         254 LDynOK=F.
 CoulSu:  NPrtUS=  32 ThrOK=T IAlg=1 NPAlg=1 LenDen=           0 LWGrdD=           0 DoCopy=F.
 Enter PrismC: JobTyp=21 DoJE=F Cont=F.
 Linear combination for Coulomb/exchange, wScrn=  0.000000
 CW=    0.222036    0.777964
 Enter PrismC: JobTyp=21 DoJE=F Cont=F.
 Enter PrismC: JobTyp=21 DoJE=F Cont=F.
 Enter PrismC: JobTyp=21 DoJE=F Cont=F.
 Linear combination for Coulomb/exchange, wScrn=  0.000000
 CW=    0.222036    0.777964
 WU=    0.000000   12.500000
 Enter PrismC: JobTyp=21 DoJE=F Cont=F.
 Linear combination for Coulomb/exchange, wScrn=  0.000000
 CW=    0.222036    0.777964
 WU=    0.000000   12.500000
 Enter PrismC: JobTyp=21 DoJE=F Cont=F.
 Linear combination for Coulomb/exchange, wScrn=  0.000000
 CW=    0.222036    0.777964
 WU=    0.000000   12.500000
 Enter PrismC: JobTyp=21 DoJE=F Cont=F.
 Linear combination for Coulomb/exchange, wScrn=  0.000000
 CW=    0.222036    0.777964
 WU=    0.000000   12.500000
 Enter PrismC: JobTyp=21 DoJE=F Cont=F.
 Linear combination for Coulomb/exchange, wScrn=  0.000000
 CW=    0.222036    0.777964
 WU=    0.000000   12.500000
 Enter PrismC: JobTyp=21 DoJE=F Cont=F.
 Linear combination for Coulomb/exchange, wScrn=  0.000000
 CW=    0.222036    0.777964
 WU=    0.000000   12.500000
 Linear combination for Coulomb/exchange, wScrn=  0.000000
 CW=    0.222036    0.777964
 WU=    0.000000   12.500000
 Enter PrismC: JobTyp=21 DoJE=F Cont=F.
 Linear combination for Coulomb/exchange, wScrn=  0.000000
 Enter PrismC: JobTyp=21 DoJE=F Cont=F.
 Linear combination for Coulomb/exchange, wScrn=  0.000000
 CW=    0.222036    0.777964
 WU=    0.000000   12.500000
 Enter PrismC: JobTyp=21 DoJE=F Cont=F.
 Linear combination for Coulomb/exchange, wScrn=  0.000000
 CW=    0.222036    0.777964
 WU=    0.000000   12.500000
 Enter PrismC: JobTyp=21 DoJE=F Cont=F.
 Linear combination for Coulomb/exchange, wScrn=  0.000000
 CW=    0.222036    0.777964
 WU=    0.000000   12.500000
 Enter PrismC: JobTyp=21 DoJE=F Cont=F.
 Linear combination for Coulomb/exchange, wScrn=  0.000000
 CW=    0.222036    0.777964
 WU=    0.000000   12.500000
 Enter PrismC: JobTyp=21 DoJE=F Cont=F.
 Linear combination for Coulomb/exchange, wScrn=  0.000000
 CW=    0.222036    0.777964
 WU=    0.000000   12.500000
 Enter PrismC: JobTyp=21 DoJE=F Cont=F.
 Linear combination for Coulomb/exchange, wScrn=  0.000000
 CW=    0.222036    0.777964
 WU=    0.000000   12.500000
 Enter PrismC: JobTyp=21 DoJE=F Cont=F.
 Linear combination for Coulomb/exchange, wScrn=  0.000000
 CW=    0.222036    0.777964
 WU=    0.000000   12.500000
 Enter PrismC: JobTyp=21 DoJE=F Cont=F.
 Linear combination for Coulomb/exchange, wScrn=  0.000000
 CW=    0.222036    0.777964
 WU=    0.000000   12.500000
 Linear combination for Coulomb/exchange, wScrn=  0.000000
 CW=    0.222036    0.777964
 WU=    0.000000   12.500000
 PrismC was handed    13082948 working-precision words and  1275 shell-pairs
 Enter PrismC: JobTyp=21 DoJE=F Cont=F.
 Linear combination for Coulomb/exchange, wScrn=  0.000000
 CW=    0.222036    0.777964
 WU=    0.000000   12.500000
 Enter PrismC: JobTyp=21 DoJE=F Cont=F.
 Linear combination for Coulomb/exchange, wScrn=  0.000000
 CW=    0.222036    0.777964
 WU=    0.000000   12.500000
 Enter PrismC: JobTyp=21 DoJE=F Cont=F.
 Linear combination for Coulomb/exchange, wScrn=  0.000000
 CW=    0.222036    0.777964
 WU=    0.000000   12.500000
 Enter PrismC: JobTyp=21 DoJE=F Cont=F.
 Linear combination for Coulomb/exchange, wScrn=  0.000000
 CW=    0.222036    0.777964
 WU=    0.000000   12.500000
 Enter PrismC: JobTyp=21 DoJE=F Cont=F.
 Linear combination for Coulomb/exchange, wScrn=  0.000000
 CW=    0.222036    0.777964
 WU=    0.000000   12.500000
 Enter PrismC: JobTyp=21 DoJE=F Cont=F.
 Linear combination for Coulomb/exchange, wScrn=  0.000000
 CW=    0.222036    0.777964
 WU=    0.000000   12.500000
 PrismC was handed    13082948 working-precision words and  1275 shell-pairs
 Enter PrismC: JobTyp=21 DoJE=F Cont=F.
 Linear combination for Coulomb/exchange, wScrn=  0.000000
 CW=    0.222036    0.777964
 WU=    0.000000   12.500000
 Enter PrismC: JobTyp=21 DoJE=F Cont=F.
 Linear combination for Coulomb/exchange, wScrn=  0.000000
 CW=    0.222036    0.777964
 WU=    0.000000   12.500000
 PrismC was handed    13082948 working-precision words and  1275 shell-pairs
 PrismC was handed    13082948 working-precision words and  1275 shell-pairs
 PrismC was handed    13082948 working-precision words and  1275 shell-pairs
 WU=    0.000000   12.500000
 PrismC was handed    13082948 working-precision words and  1275 shell-pairs
 PrismC was handed    13082948 working-precision words and  1275 shell-pairs
 PrismC was handed    13082948 working-precision words and  1275 shell-pairs
 Enter PrismC: JobTyp=21 DoJE=F Cont=F.
 Linear combination for Coulomb/exchange, wScrn=  0.000000
 CW=    0.222036    0.777964
 WU=    0.000000   12.500000
 PrismC was handed    13082948 working-precision words and  1275 shell-pairs
 PrismC was handed    13082948 working-precision words and  1275 shell-pairs
 PrismC was handed    13082948 working-precision words and  1275 shell-pairs
 PrismC was handed    13082948 working-precision words and  1275 shell-pairs
 Enter PrismC: JobTyp=21 DoJE=F Cont=F.
 Linear combination for Coulomb/exchange, wScrn=  0.000000
 CW=    0.222036    0.777964
 WU=    0.000000   12.500000
 Enter PrismC: JobTyp=21 DoJE=F Cont=F.
 Linear combination for Coulomb/exchange, wScrn=  0.000000
 CW=    0.222036    0.777964
 WU=    0.000000   12.500000
 PrismC was handed    13082948 working-precision words and  1275 shell-pairs
 Enter PrismC: JobTyp=21 DoJE=F Cont=F.
 Linear combination for Coulomb/exchange, wScrn=  0.000000
 CW=    0.222036    0.777964
 WU=    0.000000   12.500000
 PrismC was handed    13082948 working-precision words and  1275 shell-pairs
 PrismC was handed    13082948 working-precision words and  1275 shell-pairs
 PrismC:  IPart=     0 DynPar=T LinDyn=F Incr=         254 UseFst=F UseS4=T IGathr=2.
 PrismC was handed    13082948 working-precision words and  1275 shell-pairs
 PrismC was handed    13082948 working-precision words and  1275 shell-pairs
 PrismC was handed    13082948 working-precision words and  1275 shell-pairs
 Enter PrismC: JobTyp=21 DoJE=F Cont=F.
 Linear combination for Coulomb/exchange, wScrn=  0.000000
 CW=    0.222036    0.777964
 WU=    0.000000   12.500000
 PrismC was handed    13082948 working-precision words and  1275 shell-pairs
 PrismC was handed    13082948 working-precision words and  1275 shell-pairs
 PrismC was handed    13082948 working-precision words and  1275 shell-pairs
 CW=    0.222036    0.777964
 WU=    0.000000   12.500000
 PrismC was handed    13082948 working-precision words and  1275 shell-pairs
 PrismC was handed    13082948 working-precision words and  1275 shell-pairs
 PrismC was handed    13082948 working-precision words and  1275 shell-pairs
 Enter PrismC: JobTyp=21 DoJE=F Cont=F.
 Linear combination for Coulomb/exchange, wScrn=  0.000000
 CW=    0.222036    0.777964
 WU=    0.000000   12.500000
 PrismC was handed    13082948 working-precision words and  1275 shell-pairs
 PrismC was handed    13082948 working-precision words and  1275 shell-pairs
 PrismC was handed    13082948 working-precision words and  1275 shell-pairs
 PrismC was handed    13082948 working-precision words and  1275 shell-pairs
 PrismC was handed    13082948 working-precision words and  1275 shell-pairs
 PrismC was handed    13082948 working-precision words and  1275 shell-pairs
 PrismC was handed    13082948 working-precision words and  1275 shell-pairs
 PrismC was handed    13082948 working-precision words and  1275 shell-pairs
 IPart=  9 NShTot=       22808 NShNF=       22808 NShFF=           0 NBatch=         330 AvBLen=        69.1
 IPart=  5 NShTot=       22052 NShNF=       22052 NShFF=           0 NBatch=         329 AvBLen=        67.0
 IPart= 24 NShTot=       24223 NShNF=       24223 NShFF=           0 NBatch=         334 AvBLen=        72.5
 IPart=  0 NShTot=       26727 NShNF=       26727 NShFF=           0 NBatch=         324 AvBLen=        82.5
 IPart= 15 NShTot=       27780 NShNF=       27780 NShFF=           0 NBatch=         329 AvBLen=        84.4
 IPart=  4 NShTot=       24758 NShNF=       24758 NShFF=           0 NBatch=         267 AvBLen=        92.7
 IPart= 30 NShTot=       24955 NShNF=       24955 NShFF=           0 NBatch=         333 AvBLen=        74.9
 IPart= 18 NShTot=       25470 NShNF=       25470 NShFF=           0 NBatch=         236 AvBLen=       107.9
 IPart= 11 NShTot=       24133 NShNF=       24133 NShFF=           0 NBatch=         340 AvBLen=        71.0
 IPart= 12 NShTot=       28446 NShNF=       28446 NShFF=           0 NBatch=         317 AvBLen=        89.7
 IPart= 26 NShTot=       26999 NShNF=       26999 NShFF=           0 NBatch=         310 AvBLen=        87.1
 IPart= 19 NShTot=       23808 NShNF=       23808 NShFF=           0 NBatch=         247 AvBLen=        96.4
 IPart= 27 NShTot=       25174 NShNF=       25174 NShFF=           0 NBatch=         251 AvBLen=       100.3
 IPart= 13 NShTot=       26735 NShNF=       26735 NShFF=           0 NBatch=         323 AvBLen=        82.8
 IPart= 20 NShTot=       23363 NShNF=       23363 NShFF=           0 NBatch=         324 AvBLen=        72.1
 IPart=  1 NShTot=       23066 NShNF=       23066 NShFF=           0 NBatch=         317 AvBLen=        72.8
 IPart= 23 NShTot=       25197 NShNF=       25197 NShFF=           0 NBatch=         320 AvBLen=        78.7
 IPart=  7 NShTot=       27441 NShNF=       27441 NShFF=           0 NBatch=         282 AvBLen=        97.3
 IPart=  3 NShTot=       20269 NShNF=       20269 NShFF=           0 NBatch=         318 AvBLen=        63.7
 IPart= 21 NShTot=       22886 NShNF=       22886 NShFF=           0 NBatch=         309 AvBLen=        74.1
 IPart= 22 NShTot=       23479 NShNF=       23479 NShFF=           0 NBatch=         272 AvBLen=        86.3
 IPart= 16 NShTot=       21556 NShNF=       21556 NShFF=           0 NBatch=         290 AvBLen=        74.3
 IPart=  2 NShTot=       23222 NShNF=       23222 NShFF=           0 NBatch=         249 AvBLen=        93.3
 IPart=  8 NShTot=       25776 NShNF=       25776 NShFF=           0 NBatch=         252 AvBLen=       102.3
 IPart= 29 NShTot=       24991 NShNF=       24991 NShFF=           0 NBatch=         210 AvBLen=       119.0
 IPart= 14 NShTot=       24612 NShNF=       24612 NShFF=           0 NBatch=         297 AvBLen=        82.9
 IPart= 31 NShTot=       24504 NShNF=       24504 NShFF=           0 NBatch=         274 AvBLen=        89.4
 IPart=  6 NShTot=       21044 NShNF=       21044 NShFF=           0 NBatch=         289 AvBLen=        72.8
 IPart= 28 NShTot=       25506 NShNF=       25506 NShFF=           0 NBatch=         292 AvBLen=        87.3
 IPart= 10 NShTot=       22108 NShNF=       22108 NShFF=           0 NBatch=         267 AvBLen=        82.8
 IPart= 17 NShTot=       23765 NShNF=       23765 NShFF=           0 NBatch=         295 AvBLen=        80.6
 IPart= 25 NShTot=       23948 NShNF=       23948 NShFF=           0 NBatch=         316 AvBLen=        75.8
 CoulSu:  NxtVal=         897891.
 ReadGW:  IGet=0 IStart=           1 Next=           1 LGW=           0.
 Remaining memory in FofDFT      399.95 Mw
 CkSvGd:  ISavGI=        -1 IRadAn=       5 IRASav=       5 ISavGd=        -1.
 CalDSu:  NPrtUS=  32 ThrOK=T IAlg=1 NPAlg=2 DoDPD=T LenP=       12090 LenD1P=             0.
 IPart=  0 IRanGd=          0 ScrnBf=T ScrnGd=T RCrit=4.00D+00 DoMicB=T.
 IPart= 11         2965 of         3034 points in       3 batches and        9 microbatches, Max-NSigAt=       5 Max-NSgAt2=       5
 IPart= 22         2682 of         2964 points in       3 batches and       28 microbatches, Max-NSigAt=       5 Max-NSgAt2=       5
 IPart= 29         3297 of         3424 points in       3 batches and        7 microbatches, Max-NSigAt=       5 Max-NSgAt2=       5
 IPart=  3         2752 of         2752 points in       2 batches and        6 microbatches, Max-NSigAt=       5 Max-NSgAt2=       5
 IPart= 28         3685 of         4172 points in       5 batches and       10 microbatches, Max-NSigAt=       5 Max-NSgAt2=       5
 IPart= 30         3183 of         3568 points in       4 batches and       21 microbatches, Max-NSigAt=       5 Max-NSgAt2=       5
 IPart= 19         3076 of         3322 points in       3 batches and       23 microbatches, Max-NSigAt=       5 Max-NSgAt2=       5
 IPart=  2         2773 of         2988 points in       3 batches and       27 microbatches, Max-NSigAt=       5 Max-NSgAt2=       5
 IPart= 14         2695 of         2964 points in       3 batches and       21 microbatches, Max-NSigAt=       5 Max-NSgAt2=       5
 IPart=  9         3227 of         3316 points in       3 batches and        8 microbatches, Max-NSigAt=       5 Max-NSgAt2=       5
 IPart= 12         3166 of         3624 points in       5 batches and       63 microbatches, Max-NSigAt=       5 Max-NSgAt2=       5
 IPart=  6         2306 of         2360 points in       2 batches and        6 microbatches, Max-NSigAt=       5 Max-NSgAt2=       5
 IPart=  8         2715 of         2948 points in       3 batches and       26 microbatches, Max-NSigAt=       5 Max-NSgAt2=       5
 IPart=  4         3304 of         3568 points in       4 batches and       30 microbatches, Max-NSigAt=       5 Max-NSgAt2=       5
 IPart= 18         2910 of         2992 points in       3 batches and       22 microbatches, Max-NSigAt=       5 Max-NSgAt2=       5
 IPart= 13         3527 of         3968 points in       5 batches and       44 microbatches, Max-NSigAt=       5 Max-NSgAt2=       5
 IPart= 21         3370 of         3596 points in       4 batches and       18 microbatches, Max-NSigAt=       5 Max-NSgAt2=       5
 IPart= 25         2710 of         2992 points in       4 batches and       34 microbatches, Max-NSigAt=       5 Max-NSgAt2=       5
 IPart= 31         3799 of         4200 points in       5 batches and       28 microbatches, Max-NSigAt=       5 Max-NSgAt2=       5
 IPart=  7         4448 of         4944 points in       5 batches and       14 microbatches, Max-NSigAt=       5 Max-NSgAt2=       5
 IPart= 15         4672 of         5254 points in       6 batches and       32 microbatches, Max-NSigAt=       5 Max-NSgAt2=       5
 IPart= 17         4311 of         4784 points in       6 batches and       32 microbatches, Max-NSigAt=       5 Max-NSgAt2=       5
 IPart= 27         3382 of         3568 points in       4 batches and       27 microbatches, Max-NSigAt=       5 Max-NSgAt2=       5
 IPart=  1         4005 of         4172 points in       4 batches and       10 microbatches, Max-NSigAt=       5 Max-NSgAt2=       5
 IPart=  0         3492 of         3564 points in       3 batches and       11 microbatches, Max-NSigAt=       5 Max-NSgAt2=       5
 IPart= 23         4004 of         4214 points in       4 batches and       12 microbatches, Max-NSigAt=       5 Max-NSgAt2=       5
 IPart= 26         3518 of         3540 points in       3 batches and        9 microbatches, Max-NSigAt=       5 Max-NSgAt2=       5
 IPart=  5         3986 of         4144 points in       4 batches and       23 microbatches, Max-NSigAt=       5 Max-NSgAt2=       5
 IPart= 24         3508 of         3540 points in       3 batches and       12 microbatches, Max-NSigAt=       5 Max-NSgAt2=       5
 IPart= 20         3564 of         3568 points in       3 batches and       10 microbatches, Max-NSigAt=       5 Max-NSgAt2=       5
 IPart= 10         3386 of         3540 points in       3 batches and       14 microbatches, Max-NSigAt=       5 Max-NSgAt2=       5
 IPart= 16         3805 of         4186 points in       5 batches and       45 microbatches, Max-NSigAt=       5 Max-NSgAt2=       5
 Forces at end of L703
 I=    0 X=   6.369524548259D-03 Y=   1.254943657243D-01 Z=   3.617560770819D-03
 I=    1 X=   4.901623970014D-04 Y=   8.874145479890D-03 Z=   2.760093821353D-04
 I=    2 X=   7.271813811105D-05 Y=  -6.705226422310D-04 Z=  -4.590828828377D-05
 I=    3 X=  -1.085939048018D-05 Y=  -6.688132787375D-04 Z=   8.811394582242D-05
 I=    4 X=   1.195307104940D-05 Y=  -1.138796175175D-03 Z=   3.936285189132D-06
 I=    5 X=  -5.639742156811D-04 Y=  -6.396013383745D-03 Z=  -3.221513248551D-04
 FrcOut:
 IF    =    36 IFX   =    51 IFXYZ =    66
 IFFX  =    81 IFFFX =   201 IFLen =    15
 IFFLen=   120 IFFFLn=     0 IEDerv=   201
 LEDerv=   773 IFroze=  1163 ICStrt= 39591
 FCEst1:  Generated internal coordinate force constants:
                1             2             3             4             5 
      1  0.724858D+00
      2  0.504659D-02  0.227253D+00
      3 -0.127775D-02  0.288768D-02  0.726377D+00
      4 -0.115932D+00 -0.260210D-02  0.927516D-03  0.773218D-01
      5 -0.260463D-02 -0.714496D-01  0.149670D-01  0.254632D-02  0.492311D-01
      6  0.000000D+00  0.000000D+00 -0.362127D+00  0.000000D+00  0.000000D+00
      7 -0.300279D+00 -0.129213D-02  0.106319D+00  0.192747D-01 -0.153779D-04
      8  0.116721D-01 -0.714625D-01 -0.971992D-02 -0.307817D-04  0.108432D-01
      9  0.107245D+00 -0.224055D-02 -0.177770D+00  0.334224D-01 -0.266652D-04
     10 -0.300434D+00 -0.743550D-03 -0.106687D+00  0.193045D-01  0.414409D-04
     11 -0.136954D-01 -0.699851D-01 -0.789497D-02  0.544441D-04  0.108410D-01
     12 -0.106686D+00 -0.410965D-03 -0.177448D+00 -0.334086D-01 -0.134719D-03
     13 -0.821285D-02 -0.408805D-03  0.718897D-03  0.312409D-04  0.322385D-04
     14 -0.418666D-03 -0.143558D-01 -0.239798D-03  0.321166D-04  0.534321D-03
     15  0.718771D-03 -0.236164D-03 -0.903232D-02 -0.941334D-03 -0.148056D-01
                6             7             8             9            10 
      6  0.362127D+00
      7  0.000000D+00  0.291045D+00
      8  0.000000D+00  0.126404D-02  0.492332D-01
      9  0.000000D+00 -0.123256D+00  0.219184D-02  0.148401D+00
     10  0.000000D+00 -0.964420D-02 -0.960237D-04 -0.167230D-01  0.290796D+00
     11  0.000000D+00  0.271870D-04  0.108410D-01  0.471423D-04  0.795647D-03
     12  0.000000D+00  0.166901D-01  0.103177D-03  0.289406D-01  0.123441D+00
     13  0.000000D+00 -0.396871D-03 -0.128093D-01 -0.688175D-03 -0.219637D-04
     14  0.000000D+00  0.162808D-04  0.545146D-03  0.282308D-04  0.248512D-05
     15  0.000000D+00  0.246870D-03  0.742490D-02  0.428073D-03 -0.300645D-04
               11            12            13            14            15 
     11  0.493861D-01
     12  0.440514D-03  0.148498D+00
     13  0.128181D-01 -0.364807D-04  0.860044D-02
     14 -0.108304D-02  0.199321D-05  0.367783D-03  0.143594D-01
     15  0.740732D-02  0.898271D-05  0.575824D-05  0.209574D-03  0.859527D-02
 Quadrupole    = 5.92075507D-01-1.18431189D+00 5.92236385D-01
                -1.52996986D-02 2.90003427D-04-8.65647574D-03
 -------------------------------------------------------------------
 Center     Atomic                   Forces (Hartrees/Bohr)
 Number     Number              X              Y              Z
 -------------------------------------------------------------------
      1        6          -0.000490162   -0.008874145   -0.000276009
      2        1          -0.000072718    0.000670523    0.000045908
      3        1           0.000010859    0.000668813   -0.000088114
      4        1          -0.000011953    0.001138796   -0.000003936
      5        1           0.000563974    0.006396013    0.000322151
 -------------------------------------------------------------------
 Cartesian Forces:  Max     0.008874145 RMS     0.002858985
 From PutF, contents of force:
   1   -0.8309258826D-03
   2   -0.4763166624D-03
   3    0.9007754610D-05
   4    0.1444696288D-03
   5   -0.1342287210D-05
   6    0.2009079214D-02
   7    0.5342696019D-04
   8    0.4590828828D-04
   9   -0.6426355014D-02
 -----------------------------------------------------------------------------------------------
                       Internal Coordinate Forces (Hartree/Bohr or radian)
  Cent   Atom   N1       Length/X         N2         Alpha/Y        N3         Beta/Z          J
 -----------------------------------------------------------------------------------------------
      1  C 
      2  H        1   0.000046(     1)
      3  H        1   0.000053(     2)      2   0.000144(     5)
      4  H        1   0.000009(     3)      2  -0.000001(     6)      3   0.002009(     8)     0
      5  H        1  -0.006426(     4)      2  -0.000476(     7)      3  -0.000831(     9)     0
 -----------------------------------------------------------------------------------------------
 Internal  Forces:  Max     0.006426355 RMS     0.002267590
 Force constants in Cartesian coordinates: 
                1             2             3             4             5 
      1  0.724858D+00
      2  0.504659D-02  0.227253D+00
      3 -0.127775D-02  0.288768D-02  0.726377D+00
      4 -0.115932D+00 -0.260210D-02  0.927516D-03  0.773218D-01
      5 -0.260463D-02 -0.714496D-01  0.149670D-01  0.254632D-02  0.492311D-01
      6  0.000000D+00  0.000000D+00 -0.362127D+00  0.000000D+00  0.000000D+00
      7 -0.300279D+00 -0.129213D-02  0.106319D+00  0.192747D-01 -0.153779D-04
      8  0.116721D-01 -0.714625D-01 -0.971992D-02 -0.307817D-04  0.108432D-01
      9  0.107245D+00 -0.224055D-02 -0.177770D+00  0.334224D-01 -0.266652D-04
     10 -0.300434D+00 -0.743550D-03 -0.106687D+00  0.193045D-01  0.414409D-04
     11 -0.136954D-01 -0.699851D-01 -0.789497D-02  0.544441D-04  0.108410D-01
     12 -0.106686D+00 -0.410965D-03 -0.177448D+00 -0.334086D-01 -0.134719D-03
     13 -0.821285D-02 -0.408805D-03  0.718897D-03  0.312409D-04  0.322385D-04
     14 -0.418666D-03 -0.143558D-01 -0.239798D-03  0.321166D-04  0.534321D-03
     15  0.718771D-03 -0.236164D-03 -0.903232D-02 -0.941334D-03 -0.148056D-01
                6             7             8             9            10 
      6  0.362127D+00
      7  0.000000D+00  0.291045D+00
      8  0.000000D+00  0.126404D-02  0.492332D-01
      9  0.000000D+00 -0.123256D+00  0.219184D-02  0.148401D+00
     10  0.000000D+00 -0.964420D-02 -0.960237D-04 -0.167230D-01  0.290796D+00
     11  0.000000D+00  0.271870D-04  0.108410D-01  0.471423D-04  0.795647D-03
     12  0.000000D+00  0.166901D-01  0.103177D-03  0.289406D-01  0.123441D+00
     13  0.000000D+00 -0.396871D-03 -0.128093D-01 -0.688175D-03 -0.219637D-04
     14  0.000000D+00  0.162808D-04  0.545146D-03  0.282308D-04  0.248512D-05
     15  0.000000D+00  0.246870D-03  0.742490D-02  0.428073D-03 -0.300645D-04
               11            12            13            14            15 
     11  0.493861D-01
     12  0.440514D-03  0.148498D+00
     13  0.128181D-01 -0.364807D-04  0.860044D-02
     14 -0.108304D-02  0.199321D-05  0.367783D-03  0.143594D-01
     15  0.740732D-02  0.898271D-05  0.575824D-05  0.209574D-03  0.859527D-02
 FCInt: Cartesian first derivatives: 
                 1             2             3             4             5 
      1   0.000000D+00  0.000000D+00  0.000000D+00  0.000000D+00  0.000000D+00
      2   0.000000D+00  0.000000D+00  0.000000D+00  0.000000D+00  0.000000D+00
      3   0.000000D+00  0.000000D+00  0.000000D+00  0.000000D+00  0.000000D+00
 FCInt: Cartesian force constants: 
                1             2             3             4             5 
      1  0.724858D+00
      2  0.504659D-02  0.227253D+00
      3 -0.127775D-02  0.288768D-02  0.726377D+00
      4 -0.115932D+00 -0.260210D-02  0.927516D-03  0.773218D-01
      5 -0.260463D-02 -0.714496D-01  0.149670D-01  0.254632D-02  0.492311D-01
      6  0.000000D+00  0.000000D+00 -0.362127D+00  0.000000D+00  0.000000D+00
      7 -0.300279D+00 -0.129213D-02  0.106319D+00  0.192747D-01 -0.153779D-04
      8  0.116721D-01 -0.714625D-01 -0.971992D-02 -0.307817D-04  0.108432D-01
      9  0.107245D+00 -0.224055D-02 -0.177770D+00  0.334224D-01 -0.266652D-04
     10 -0.300434D+00 -0.743550D-03 -0.106687D+00  0.193045D-01  0.414409D-04
     11 -0.136954D-01 -0.699851D-01 -0.789497D-02  0.544441D-04  0.108410D-01
     12 -0.106686D+00 -0.410965D-03 -0.177448D+00 -0.334086D-01 -0.134719D-03
     13 -0.821285D-02 -0.408805D-03  0.718897D-03  0.312409D-04  0.322385D-04
     14 -0.418666D-03 -0.143558D-01 -0.239798D-03  0.321166D-04  0.534321D-03
     15  0.718771D-03 -0.236164D-03 -0.903232D-02 -0.941334D-03 -0.148056D-01
                6             7             8             9            10 
      6  0.362127D+00
      7  0.000000D+00  0.291045D+00
      8  0.000000D+00  0.126404D-02  0.492332D-01
      9  0.000000D+00 -0.123256D+00  0.219184D-02  0.148401D+00
     10  0.000000D+00 -0.964420D-02 -0.960237D-04 -0.167230D-01  0.290796D+00
     11  0.000000D+00  0.271870D-04  0.108410D-01  0.471423D-04  0.795647D-03
     12  0.000000D+00  0.166901D-01  0.103177D-03  0.289406D-01  0.123441D+00
     13  0.000000D+00 -0.396871D-03 -0.128093D-01 -0.688175D-03 -0.219637D-04
     14  0.000000D+00  0.162808D-04  0.545146D-03  0.282308D-04  0.248512D-05
     15  0.000000D+00  0.246870D-03  0.742490D-02  0.428073D-03 -0.300645D-04
               11            12            13            14            15 
     11  0.493861D-01
     12  0.440514D-03  0.148498D+00
     13  0.128181D-01 -0.364807D-04  0.860044D-02
     14 -0.108304D-02  0.199321D-05  0.367783D-03  0.143594D-01
     15  0.740732D-02  0.898271D-05  0.575824D-05  0.209574D-03  0.859527D-02
 Internal force constants: 
                1             2             3             4             5 
      1  0.362127D+00
      2  0.000000D+00  0.362127D+00
      3  0.000000D+00  0.000000D+00  0.362127D+00
      4  0.000000D+00  0.000000D+00  0.000000D+00  0.143903D-01
      5  0.000000D+00  0.000000D+00  0.000000D+00  0.000000D+00  0.320986D+00
      6  0.000000D+00  0.000000D+00  0.000000D+00  0.000000D+00  0.160181D+00
      7  0.000000D+00  0.000000D+00  0.000000D+00  0.000000D+00  0.533094D-02
      8  0.000000D+00  0.000000D+00  0.000000D+00  0.000000D+00 -0.428624D-03
      9  0.000000D+00  0.000000D+00  0.000000D+00  0.000000D+00 -0.856392D-02
                6             7             8             9 
      6  0.320365D+00
      7  0.111920D-03  0.240431D+00
      8 -0.107923D-03 -0.691900D-01  0.153695D+00
      9 -0.454595D-03 -0.211283D-03 -0.119974D+00  0.239819D+00
 Frcnst in PutFF: 
                1             2             3             4             5 
      1  0.239819D+00
      2 -0.211283D-03  0.240431D+00
      3  0.000000D+00  0.000000D+00  0.362127D+00
      4 -0.856392D-02  0.533094D-02  0.000000D+00  0.320986D+00
      5 -0.454595D-03  0.111920D-03  0.000000D+00  0.160181D+00  0.320365D+00
      6 -0.119974D+00 -0.691900D-01  0.000000D+00 -0.428624D-03 -0.107923D-03
      7  0.000000D+00  0.000000D+00  0.000000D+00  0.000000D+00  0.000000D+00
      8  0.000000D+00  0.000000D+00  0.000000D+00  0.000000D+00  0.000000D+00
      9  0.000000D+00  0.000000D+00  0.000000D+00  0.000000D+00  0.000000D+00
                6             7             8             9 
      6  0.153695D+00
      7  0.000000D+00  0.362127D+00
      8  0.000000D+00  0.000000D+00  0.362127D+00
      9  0.000000D+00  0.000000D+00  0.000000D+00  0.143903D-01
 Force constants in internal coordinates: 
                1             2             3             4             5 
      1  0.362127D+00
      2  0.000000D+00  0.362127D+00
      3  0.000000D+00  0.000000D+00  0.362127D+00
      4  0.000000D+00  0.000000D+00  0.000000D+00  0.143903D-01
      5  0.000000D+00  0.000000D+00  0.000000D+00  0.000000D+00  0.320986D+00
      6  0.000000D+00  0.000000D+00  0.000000D+00  0.000000D+00  0.160181D+00
      7  0.000000D+00  0.000000D+00  0.000000D+00  0.000000D+00  0.533094D-02
      8  0.000000D+00  0.000000D+00  0.000000D+00  0.000000D+00 -0.428624D-03
      9  0.000000D+00  0.000000D+00  0.000000D+00  0.000000D+00 -0.856392D-02
                6             7             8             9 
      6  0.320365D+00
      7  0.111920D-03  0.240431D+00
      8 -0.107923D-03 -0.691900D-01  0.153695D+00
      9 -0.454595D-03 -0.211283D-03 -0.119974D+00  0.239819D+00
 Final forces over variables, Energy=-4.03450015D+01:
 -8.30925883D-04-4.76316662D-04 9.00775461D-06 1.44469629D-04
 -1.34228721D-06 2.00907921D-03 5.34269602D-05 4.59082883D-05
 -6.42635501D-03

 GradGradGradGradGradGradGradGradGradGradGradGradGradGradGradGradGradGrad
 Berny optimization.
 Search for a local minimum.
 Step number   1 out of a maximum of   50
 All quantities printed in internal units (Hartrees-Bohrs-Radians)
 Second derivative matrix not updated -- first step.
 The second derivative matrix:
                         BABS1     AABS1      R3        A2        A3
           BABS1        0.23982
           AABS1       -0.00021   0.24043
           R3           0.00000   0.00000   0.36213
           A2          -0.00856   0.00533  -0.00000   0.32099
           A3          -0.00045   0.00011  -0.00000   0.16018   0.32037
           D3          -0.11997  -0.06919  -0.00000  -0.00043  -0.00011
           R2           0.00000   0.00000  -0.00000   0.00000   0.00000
           R1           0.00000   0.00000   0.00000   0.00000   0.00000
           RTS          0.00000   0.00000  -0.00000  -0.00000  -0.00000
                          D3        R2        R1        RTS
           D3           0.15369
           R2          -0.00000   0.36213
           R1           0.00000   0.00000   0.36213
           RTS         -0.00000   0.00000   0.00000   0.01439
 ITU=  0
     Eigenvalues ---    0.23975   0.240501000.000001000.000001000.00000
     Eigenvalues --- 1000.000001000.000001000.000001000.00000
 RFO step:  Lambda=-3.82552351D-06 EMin= 2.39753469D-01
 Linear search not attempted -- first point.
 Variable       Old X    -DE/DX   Delta X   Delta X   Delta X     New X
                                 (Linear)    (Quad)   (Total)
  BABS1       1.63427  -0.00083   0.00000  -0.00347  -0.00347   1.63080
  AABS1       1.60694  -0.00048   0.00000  -0.00198  -0.00198   1.60495
    R3        2.03750   0.00001   0.00000   0.00000   0.00000   2.03750
    A2        2.09391   0.00014   0.00000   0.00000   0.00000   2.09391
    A3        2.09476  -0.00000   0.00000   0.00000   0.00000   2.09476
    D3        3.13823   0.00201   0.00000   0.00000   0.00000   3.13823
    R2        2.03750   0.00005   0.00000   0.00000   0.00000   2.03750
    R1        2.03750   0.00005   0.00000   0.00000   0.00000   2.03750
   RTS        5.29123  -0.00643   0.00000   0.00000   0.00000   5.29123
         Item               Value     Threshold  Converged?
 Maximum Force            0.000831     0.000450     NO 
 RMS     Force            0.000677     0.000300     NO 
 Maximum Displacement     0.003466     0.001800     NO 
 RMS     Displacement     0.001331     0.001200     NO 
 Predicted change in Energy=-1.912762D-06
 GradGradGradGradGradGradGradGradGradGradGradGradGradGradGradGradGradGrad

 ---------------------------------------------------------------------------------------------------
                            Z-MATRIX (ANGSTROMS AND DEGREES)
   CD    Cent   Atom    N1       Length/X        N2       Alpha/Y        N3        Beta/Z          J
 ---------------------------------------------------------------------------------------------------
      1      1  C 
      2      2  H        1   1.078200(     1)
      3      3  H        1   1.078200(     2)      2  119.972(     5)
      4      4  H        1   1.078200(     3)      2  120.021(     6)      3  179.808(     8)      0
      5      5  H        1   2.800000(     4)      2   91.957(     7)      3   93.438(     9)      0
 ---------------------------------------------------------------------------------------------------
                         Z-Matrix orientation:                         
 ---------------------------------------------------------------------
 Center     Atomic      Atomic             Coordinates (Angstroms)
 Number     Number       Type             X           Y           Z
 ---------------------------------------------------------------------
      1          6           0        0.000000    0.000000    0.000000
      2          1           0        0.000000    0.000000    1.078200
      3          1           0        0.934011    0.000000   -0.538645
      4          1           0       -0.933548   -0.003135   -0.539437
      5          1           0       -0.167818   -2.793330   -0.095615
 ---------------------------------------------------------------------
                    Distance matrix (angstroms):
                    1          2          3          4          5
     1  C    0.000000
     2  H    1.078200   0.000000
     3  H    1.078200   1.867235   0.000000
     4  H    1.078200   1.867692   1.867562   0.000000
     5  H    2.800000   3.034584   3.035292   2.927202   0.000000
 Symmetry turned off by external request.
 Stoichiometry    CH4
 Framework group  C1[X(CH4)]
 Deg. of freedom     9
 Full point group                 C1      NOp   1
 Rotational constants (GHZ):    144.2596961     55.1637634     55.1000323
 Standard basis: Aug-CC-pVTZ (5D, 7F)
   138 basis functions,   180 primitive gaussians,   155 cartesian basis functions
     5 alpha electrons        5 beta electrons
       nuclear repulsion energy        11.3478835427 Hartrees.
 NAtoms=    5 NActive=    5 NUniq=    5 SFac= 1.00D+00 NAtFMM=   60 NAOKFM=F Big=F
 Integral buffers will be    131072 words long.
 Raffenetti 2 integral format.
 Two-electron integral symmetry is turned off.
 Nuclear repulsion after empirical dispersion term =       11.3472394055 Hartrees.
 One-electron integrals computed using PRISM.
 NBasis=   138 RedAO= T EigKep=  1.00D-04  NBF=   138
 NBsUse=   138 1.00D-06 EigRej= -1.00D+00 NBFU=   138
 ExpMin= 2.53D-02 ExpMax= 8.24D+03 ExpMxC= 2.81D+02 IAcc=3 IRadAn=         5 AccDes= 0.00D+00
 Harris functional with IExCor= 4639 and IRadAn=       5 diagonalized for initial guess.
 HarFok:  IExCor= 4639 AccDes= 0.00D+00 IRadAn=         5 IDoV= 1 UseB2=F ITyADJ=14
 ICtDFT=  3500011 ScaDFX=  1.000000  1.000000  1.000000  1.000000
 FoFCou: FMM=F IPFlag=           0 FMFlag=      100000 FMFlg1=           0
         NFxFlg=           0 DoJE=T BraDBF=F KetDBF=T FulRan=T
         wScrn=  0.000000 ICntrl=     500 IOpCl=  0 I1Cent=   200000004 NGrid=           0
         NMat0=    1 NMatS0=      1 NMatT0=    0 NMatD0=    1 NMtDS0=    0 NMtDT0=    0
 Symmetry not used in FoFCou.
 Mixing orbitals, IMix= 1 IMixAn=  0 NRI=1 NE=    5 Coef=  7.07106781D-01  7.07106781D-01
 Mixing orbitals, IMix= 1 IMixAn=  0 NRI=1 NE=    5 Coef= -7.07106781D-01  7.07106781D-01
 Initial guess <Sx>= 0.0000 <Sy>= 0.0000 <Sz>= 0.0000 <S**2>= 1.0000 S= 0.6180
 Keep R1 and R2 ints in memory in canonical form, NReq=186089393.
 Requested convergence on RMS density matrix=1.00D-08 within 128 cycles.
 Requested convergence on MAX density matrix=1.00D-06.
 Requested convergence on             energy=1.00D-06.
 No special actions if energy rises.
 SCF Done:  E(UwB97XD) =  -40.3450052125     A.U. after   16 cycles
            NFock= 16  Conv=0.57D-08     -V/T= 2.0078
 <Sx>= 0.0000 <Sy>= 0.0000 <Sz>= 0.0000 <S**2>= 0.9071 S= 0.5757
 <L.S>=  0.00000000000    
 Annihilation of the first spin contaminant:
 S**2 before annihilation     0.9071,   after     0.0239
 DipInt: DoE/N= T T RetVal/Mat= T F Init=T NMatP=  1 IDeriv=0 Min/MaxMlt=  1  1
 Entering OneElI...
 Multipole integrals L=1 to 1 MinM= 0 MaxM= 0.
 Requested accuracy = 0.1000D-12
 PrsmSu:  NPrtUS=   1 ThrOK=F IAlg=1 NPAlg=1 LenDen=           0.
 Prism:   IPart=     0 DynPar=F LinDyn=F Incr=          12.
 PRISM was handed   419323584 working-precision words and  1275 shell-pairs
 IPart=  0 NShTot=        1275 NBatch=          39 AvBLen=        32.7
 PrSmSu:  NxtVal=             13.
 Entering OneElI...
 Calculate overlap and kinetic energy integrals
    NBasis = 155  MinDer = 1  MaxDer = 1
 Requested accuracy = 0.1000D-12
 PrsmSu:  NPrtUS=  32 ThrOK=T IAlg=1 NPAlg=1 LenDen=           0.
 Prism:   IPart=     0 DynPar=F LinDyn=F Incr=           1.
 PRISM was handed    13082643 working-precision words and  1275 shell-pairs
 PRISM was handed    13082643 working-precision words and  1275 shell-pairs
 PRISM was handed    13082643 working-precision words and  1275 shell-pairs
 PRISM was handed    13082643 working-precision words and  1275 shell-pairs
 PRISM was handed    13082643 working-precision words and  1275 shell-pairs
 PRISM was handed    13082643 working-precision words and  1275 shell-pairs
 PRISM was handed    13082643 working-precision words and  1275 shell-pairs
 PRISM was handed    13082643 working-precision words and  1275 shell-pairs
 PRISM was handed    13082643 working-precision words and  1275 shell-pairs
 PRISM was handed    13082643 working-precision words and  1275 shell-pairs
 PRISM was handed    13082643 working-precision words and  1275 shell-pairs
 PRISM was handed    13082643 working-precision words and  1275 shell-pairs
 PRISM was handed    13082643 working-precision words and  1275 shell-pairs
[...]
      5        1          -0.000007469    0.006443741   -0.000005677
 -------------------------------------------------------------------
 Cartesian Forces:  Max     0.008919298 RMS     0.002865093
 From PutF, contents of force:
   1   -0.4611446593D-05
   2    0.2592670732D-05
   3    0.3120982269D-04
   4    0.7949799375D-04
   5   -0.1131722903D-05
   6    0.1459808901D-02
   7    0.4467197139D-04
   8    0.3666025437D-04
   9   -0.6443747581D-02
 -----------------------------------------------------------------------------------------------
                       Internal Coordinate Forces (Hartree/Bohr or radian)
  Cent   Atom   N1       Length/X         N2         Alpha/Y        N3         Beta/Z          J
 -----------------------------------------------------------------------------------------------
      1  C 
      2  H        1   0.000037(     1)
      3  H        1   0.000045(     2)      2   0.000079(     5)
      4  H        1   0.000031(     3)      2  -0.000001(     6)      3   0.001460(     8)     0
      5  H        1  -0.006444(     4)      2   0.000003(     7)      3  -0.000005(     9)     0
 -----------------------------------------------------------------------------------------------
 Internal  Forces:  Max     0.006443748 RMS     0.002202614
 Final forces over variables, Energy=-4.03450381D+01:
 -4.61144659D-06 2.59267073D-06 3.12098227D-05 7.94979937D-05
 -1.13172290D-06 1.45980890D-03 4.46719714D-05 3.66602544D-05
 -6.44374758D-03

 GradGradGradGradGradGradGradGradGradGradGradGradGradGradGradGradGradGrad
 Berny optimization.
 Search for a local minimum.
 Step number   6 out of a maximum of   50
 All quantities printed in internal units (Hartrees-Bohrs-Radians)
 Update second derivatives using D2CorN and points    5    6
 DE= -1.48D-06 DEPred=-1.53D-06 R= 9.68D-01
 TightC=F SS=  1.41D+00  RLast= 1.46D-02 DXNew= 5.0454D-01 4.3950D-02
 Trust test= 9.68D-01 RLast= 1.46D-02 DXMaxT set to 3.00D-01
 The second derivative matrix:
                         BABS1     AABS1      R3        A2        A3
           BABS1        0.06899
           AABS1       -0.09759   0.18492
           R3           0.00023   0.00013   0.36213
           A2          -0.00537   0.00716  -0.00000   0.32099
           A3          -0.00017   0.00027  -0.00000   0.16018   0.32037
           D3          -0.01327  -0.00820  -0.00000  -0.00043  -0.00011
           R2          -0.00010  -0.00006  -0.00000   0.00000   0.00000
           R1          -0.00010  -0.00006   0.00000   0.00000   0.00000
           RTS         -0.00011  -0.00006  -0.00000  -0.00000  -0.00000
                          D3        R2        R1        RTS
           D3           0.15369
           R2          -0.00000   0.36213
           R1           0.00000   0.00000   0.36213
           RTS         -0.00000   0.00000   0.00000   0.01439
 ITU=  1  1  1  1  1  0
     Eigenvalues ---    0.01345   0.240461000.000001000.000001000.00000
     Eigenvalues --- 1000.000001000.000001000.000001000.00000
 RFO step:  Lambda= 0.00000000D+00 EMin= 1.34497662D-02
 Quartic linear search produced a step of  0.01381.
 Variable       Old X    -DE/DX   Delta X   Delta X   Delta X     New X
                                 (Linear)    (Quad)   (Total)
  BABS1       1.56950  -0.00000  -0.00018  -0.00001  -0.00018   1.56932
  AABS1       1.56999   0.00000  -0.00010   0.00002  -0.00008   1.56991
    R3        2.03750   0.00003   0.00000   0.00000   0.00000   2.03750
    A2        2.09391   0.00008   0.00000   0.00000   0.00000   2.09391
    A3        2.09476  -0.00000   0.00000   0.00000   0.00000   2.09476
    D3        3.13823   0.00146   0.00000   0.00000   0.00000   3.13823
    R2        2.03750   0.00004   0.00000   0.00000   0.00000   2.03750
    R1        2.03750   0.00004   0.00000   0.00000   0.00000   2.03750
   RTS        5.29123  -0.00644   0.00000   0.00000   0.00000   5.29123
         Item               Value     Threshold  Converged?
 Maximum Force            0.000005     0.000450     YES
 RMS     Force            0.000004     0.000300     YES
 Maximum Displacement     0.000185     0.001800     YES
 RMS     Displacement     0.000068     0.001200     YES
 Predicted change in Energy=-3.188619D-10
 Optimization completed.
    -- Stationary point found.
                       ----------------------------
                       !   Optimized Parameters   !
                       ! (Angstroms and Degrees)  !
 ----------------------                            ----------------------
 !      Name          Value   Derivative information (Atomic Units)     !
 ------------------------------------------------------------------------
 !      BABS1       89.9258   -DE/DX =    0.0                           !
 !      AABS1       89.9539   -DE/DX =    0.0                           !
 !       R3          1.0782   -DE/DX =    0.0                           !
 !       A2        119.9721   -DE/DX =    0.0001                        !
 !       A3        120.0207   -DE/DX =    0.0                           !
 !       D3        179.8076   -DE/DX =    0.0015                        !
 !       R2          1.0782   -DE/DX =    0.0                           !
 !       R1          1.0782   -DE/DX =    0.0                           !
 !       RTS         2.8      -DE/DX =   -0.0064                        !
 ------------------------------------------------------------------------
 GradGradGradGradGradGradGradGradGradGradGradGradGradGradGradGradGradGrad

 ---------------------------------------------------------------------------------------------------
                            Z-MATRIX (ANGSTROMS AND DEGREES)
   CD    Cent   Atom    N1       Length/X        N2       Alpha/Y        N3        Beta/Z          J
 ---------------------------------------------------------------------------------------------------
      1      1  C 
      2      2  H        1   1.078200(     1)
      3      3  H        1   1.078200(     2)      2  119.972(     5)
      4      4  H        1   1.078200(     3)      2  120.021(     6)      3  179.808(     8)      0
      5      5  H        1   2.800000(     4)      2   89.954(     7)      3   89.926(     9)      0
 ---------------------------------------------------------------------------------------------------
                         Z-Matrix orientation:                         
 ---------------------------------------------------------------------
 Center     Atomic      Atomic             Coordinates (Angstroms)
 Number     Number       Type             X           Y           Z
 ---------------------------------------------------------------------
      1          6           0        0.000000    0.000000    0.000000
      2          1           0        0.000000    0.000000    1.078200
      3          1           0        0.934011    0.000000   -0.538645
      4          1           0       -0.933548   -0.003135   -0.539437
      5          1           0        0.003624   -2.799997    0.002254
 ---------------------------------------------------------------------
                    Distance matrix (angstroms):
                    1          2          3          4          5
     1  C    0.000000
     2  H    1.078200   0.000000
     3  H    1.078200   1.867235   0.000000
     4  H    1.078200   1.867692   1.867562   0.000000
     5  H    2.800000   2.999609   2.999695   2.999026   0.000000
 Symmetry turned off by external request.
 Stoichiometry    CH4
 Framework group  C1[X(CH4)]
 Deg. of freedom     9
 Full point group                 C1      NOp   1
 Rotational constants (GHZ):    143.7846768     55.1698744     55.1637073

 **********************************************************************

            Population analysis using the SCF density.

 **********************************************************************

 Alpha  occ. eigenvalues --  -10.30474  -0.79146  -0.51409  -0.51401  -0.32019
 Alpha virt. eigenvalues --   -0.01129   0.03897   0.05165   0.05166   0.10940
 Alpha virt. eigenvalues --    0.11702   0.12834   0.12836   0.13974   0.19709
 Alpha virt. eigenvalues --    0.19710   0.20574   0.20575   0.26412   0.30473
 Alpha virt. eigenvalues --    0.30748   0.30748   0.32961   0.32964   0.34097
 Alpha virt. eigenvalues --    0.34779   0.37776   0.39020   0.39022   0.40558
 Alpha virt. eigenvalues --    0.40561   0.41352   0.44040   0.44042   0.57510
 Alpha virt. eigenvalues --    0.59528   0.66551   0.66563   0.68855   0.73460
 Alpha virt. eigenvalues --    0.73465   0.79219   0.79222   0.80347   0.80905
 Alpha virt. eigenvalues --    0.80911   0.81385   0.86608   0.86610   0.87585
 Alpha virt. eigenvalues --    0.94272   0.94390   0.94394   0.98474   0.98481
 Alpha virt. eigenvalues --    1.00584   1.00589   1.00957   1.03466   1.06357
 Alpha virt. eigenvalues --    1.06363   1.10906   1.10909   1.15771   1.18182
 Alpha virt. eigenvalues --    1.18184   1.25703   1.37070   1.37077   1.39312
 Alpha virt. eigenvalues --    1.49920   1.49922   1.50428   1.51358   1.56693
 Alpha virt. eigenvalues --    1.56706   1.59251   1.68889   1.79358   1.79369
 Alpha virt. eigenvalues --    1.94339   1.94352   1.95899   2.05580   2.05591
 Alpha virt. eigenvalues --    2.06868   2.79668   2.79669   2.83730   2.90133
 Alpha virt. eigenvalues --    2.98983   2.98988   2.99565   3.34006   3.34018
 Alpha virt. eigenvalues --    3.37907   3.37907   3.39321   3.42596   3.43370
 Alpha virt. eigenvalues --    3.43381   3.48628   3.69477   3.70088   3.73239
 Alpha virt. eigenvalues --    3.73243   3.79762   3.79763   3.87469   3.87471
 Alpha virt. eigenvalues --    4.02324   4.02329   4.02904   4.09422   4.09425
 Alpha virt. eigenvalues --    4.16040   4.16473   4.16500   4.27621   4.47893
 Alpha virt. eigenvalues --    4.57277   4.57278   4.59947   4.59950   4.78676
 Alpha virt. eigenvalues --    4.79971   5.04594   5.04650   5.10036   5.10060
 Alpha virt. eigenvalues --    5.17940   5.17951   5.28244   6.05785   6.21022
 Alpha virt. eigenvalues --    6.21058   6.39983  15.92998
  Beta  occ. eigenvalues --  -10.29424  -0.74869  -0.50255  -0.50246  -0.39306
  Beta virt. eigenvalues --   -0.00054   0.04234   0.05233   0.05234   0.06392
  Beta virt. eigenvalues --    0.13168   0.13170   0.13434   0.14722   0.19872
  Beta virt. eigenvalues --    0.19874   0.20391   0.20392   0.25890   0.30070
  Beta virt. eigenvalues --    0.30636   0.30636   0.33095   0.33098   0.34096
  Beta virt. eigenvalues --    0.34762   0.38195   0.38351   0.39292   0.39294
  Beta virt. eigenvalues --    0.40946   0.40948   0.43982   0.43984   0.51457
  Beta virt. eigenvalues --    0.58908   0.66718   0.66730   0.70962   0.74024
  Beta virt. eigenvalues --    0.74030   0.80169   0.80172   0.80357   0.81851
  Beta virt. eigenvalues --    0.82271   0.82277   0.86515   0.86518   0.87897
  Beta virt. eigenvalues --    0.92449   0.92635   0.92638   0.97495   0.97498
  Beta virt. eigenvalues --    1.00535   1.00541   1.00544   1.03333   1.06477
  Beta virt. eigenvalues --    1.06480   1.11048   1.11054   1.14907   1.18352
  Beta virt. eigenvalues --    1.18354   1.23252   1.37224   1.37231   1.38970
  Beta virt. eigenvalues --    1.50388   1.50390   1.50525   1.51475   1.57201
  Beta virt. eigenvalues --    1.57214   1.60714   1.69904   1.79950   1.79961
  Beta virt. eigenvalues --    1.95383   1.95397   1.95665   2.05831   2.05843
  Beta virt. eigenvalues --    2.08939   2.49287   2.80871   2.80872   2.90336
  Beta virt. eigenvalues --    3.00439   3.02048   3.02053   3.36530   3.36538
  Beta virt. eigenvalues --    3.40847   3.40847   3.41882   3.42990   3.44694
  Beta virt. eigenvalues --    3.44704   3.50568   3.68578   3.68579   3.70372
  Beta virt. eigenvalues --    3.71380   3.73447   3.73450   3.75872   3.75873
  Beta virt. eigenvalues --    3.84482   3.84483   3.92484   4.02752   4.02755
  Beta virt. eigenvalues --    4.06025   4.16949   4.17149   4.17179   4.47157
  Beta virt. eigenvalues --    4.57517   4.57519   4.60101   4.60105   4.78209
  Beta virt. eigenvalues --    4.81821   5.04972   5.05031   5.12933   5.12957
  Beta virt. eigenvalues --    5.18507   5.18517   5.29501   6.06984   6.21584
  Beta virt. eigenvalues --    6.21621   6.40837  15.95499
          Condensed to atoms (all electrons):
               1          2          3          4          5
     1  C    6.050524   0.334024   0.334018   0.334004   0.043509
     2  H    0.334024   0.280625   0.009536   0.009525  -0.002951
     3  H    0.334018   0.009536   0.280656   0.009530  -0.002958
     4  H    0.334004   0.009525   0.009530   0.280660  -0.002964
     5  H    0.043509  -0.002951  -0.002958  -0.002964   0.976987
          Atomic-Atomic Spin Densities.
               1          2          3          4          5
     1  C    0.927191   0.015507   0.015489   0.015462  -0.005024
     2  H    0.015507  -0.027984   0.001007   0.001009   0.004284
     3  H    0.015489   0.001007  -0.028040   0.001009   0.004290
     4  H    0.015462   0.001009   0.001009  -0.028046   0.004299
     5  H   -0.005024   0.004284   0.004290   0.004299  -0.957784
 Mulliken charges and spin densities:
               1          2
     1  C   -1.096079   0.968624
     2  H    0.369240  -0.006177
     3  H    0.369218  -0.006245
     4  H    0.369245  -0.006267
     5  H   -0.011623  -0.949935
 Sum of Mulliken charges =  -0.00000   0.00000
 Mulliken charges and spin densities with hydrogens summed into heavy atoms:
               1          2
     1  C   -0.000000   0.000000
 Electronic spatial extent (au):  <R**2>=             61.4810
 Charge=              0.0000 electrons
 Dipole moment (field-independent basis, Debye):
    X=             -0.0003    Y=              0.3213    Z=             -0.0002  Tot=              0.3213
 Quadrupole moment (field-independent basis, Debye-Ang):
   XX=             -8.6303   YY=            -11.0246   ZZ=             -8.6307
   XY=              0.0039   XZ=              0.0009   YZ=              0.0022
 Traceless Quadrupole moment (field-independent basis, Debye-Ang):
   XX=              0.7983   YY=             -1.5961   ZZ=              0.7978
   XY=              0.0039   XZ=              0.0009   YZ=              0.0022
 Octapole moment (field-independent basis, Debye-Ang**2):
  XXX=             -0.0168  YYY=             13.6462  ZZZ=              0.9405  XYY=             -0.0071
  XXY=              4.2662  XXZ=             -0.9546  XZZ=             -0.0067  YZZ=              4.2681
  YYZ=             -0.0042  XYZ=             -0.0016
 Hexadecapole moment (field-independent basis, Debye-Ang**3):
 XXXX=            -16.9097 YYYY=            -85.0853 ZZZZ=            -16.9097 XXXY=              0.0453
 XXXZ=             -0.0004 YYYX=              0.0421 YYYZ=              0.0264 ZZZX=              0.0005
 ZZZY=              0.0229 XXYY=            -17.2847 XXZZ=             -5.6367 YYZZ=            -17.2847
 XXYZ=              0.0146 YYXZ=             -0.0002 ZZXY=              0.0151
 N-N= 1.134701306316D+01 E-N=-1.155163509561D+02  KE= 4.003202584757D+01
                          Isotropic Fermi Contact Couplings
        Atom                 a.u.       MegaHertz       Gauss      10(-4) cm-1
     1  C(13)              0.00925       5.19858       1.85498       1.73406
     2  H(1)              -0.01365     -30.51562     -10.88873     -10.17891
     3  H(1)              -0.01366     -30.52163     -10.89088     -10.18092
     4  H(1)              -0.01366     -30.53052     -10.89405     -10.18389
     5  H(1)              -0.28151    -629.16474    -224.50162    -209.86677
 --------------------------------------------------------
       Center         ----  Spin Dipole Couplings  ----
                      3XX-RR        3YY-RR        3ZZ-RR
 --------------------------------------------------------
     1   Atom       -0.531425      1.062893     -0.531468
     2   Atom       -0.068575     -0.005274      0.073849
     3   Atom        0.038303     -0.005271     -0.033032
     4   Atom        0.038173     -0.005249     -0.032924
     5   Atom       -0.008981      0.017962     -0.008981
 --------------------------------------------------------
                        XY            XZ            YZ
 --------------------------------------------------------
     1   Atom       -0.002689     -0.000007     -0.001551
     2   Atom       -0.000111      0.000008     -0.005348
     3   Atom       -0.004688     -0.061636      0.002576
     4   Atom        0.004827      0.061687      0.002791
     5   Atom       -0.000033     -0.000000     -0.000021
 --------------------------------------------------------


 ---------------------------------------------------------------------------------
              Anisotropic Spin Dipole Couplings in Principal Axis System
 ---------------------------------------------------------------------------------

       Atom             a.u.   MegaHertz   Gauss  10(-4) cm-1        Axes

              Baa    -0.5315   -71.318   -25.448   -23.789  0.2242  0.0013  0.9745
     1 C(13)  Bbb    -0.5314   -71.312   -25.446   -23.787  0.9745  0.0014 -0.2242
              Bcc     1.0629   142.631    50.894    47.577 -0.0017  1.0000 -0.0010
 
              Baa    -0.0686   -36.588   -13.056   -12.205  1.0000  0.0018  0.0000
     2 H(1)   Bbb    -0.0056    -3.006    -1.073    -1.003 -0.0018  0.9977  0.0671
              Bcc     0.0742    39.594    14.128    13.207  0.0001 -0.0671  0.9977
 
              Baa    -0.0686   -36.589   -13.056   -12.205  0.4996  0.0018  0.8662
     3 H(1)   Bbb    -0.0056    -3.004    -1.072    -1.002  0.0573  0.9977 -0.0351
              Bcc     0.0742    39.594    14.128    13.207  0.8643 -0.0671 -0.4984
 
              Baa    -0.0686   -36.587   -13.055   -12.204 -0.5003 -0.0000  0.8658
     4 H(1)   Bbb    -0.0056    -3.009    -1.074    -1.004 -0.0606  0.9975 -0.0350
              Bcc     0.0742    39.596    14.129    13.208  0.8637  0.0700  0.4991
 
              Baa    -0.0090    -4.792    -1.710    -1.598  0.6623  0.0014  0.7492
     5 H(1)   Bbb    -0.0090    -4.792    -1.710    -1.598  0.7492  0.0004 -0.6623
              Bcc     0.0180     9.583     3.420     3.197 -0.0012  1.0000 -0.0008
 

 ---------------------------------------------------------------------------------


 Test job not archived.
 1\1\GINC-NODE-6-6\POpt\UwB97XD\Aug-CC-pVTZ\C1H4\CAVALLOTTI\03-Jun-2023
 \1\\# uwb97xd/aug-cc-pvtz opt=(noeig,intern,maxcyc=50) # int=ultrafine
  nosym iop(7/33=1) guess=(mix,always)\\geom 0\\0,1\C\H,1,R1\H,1,R2,2,A
 2\H,1,R3,2,A3,3,D3,0\H,1,RTS,2,AABS1,3,BABS1,0\\BABS1=89.92583574\AABS
 1=89.95388008\R3=1.0782\A2=119.9721\A3=120.0207\D3=179.8076\R2=1.0782\
 R1=1.0782\RTS=2.8\\Version=EM64L-G09RevD.01\HF=-40.3450381\S2=0.90659\
 S2-1=0.\S2A=0.023818\RMSD=6.025e-09\RMSF=2.865e-03\Dipole=-0.0001326,0
 .1264053,-0.0000857\Quadrupole=0.5934799,-1.186639,0.5931591,0.0028844
 ,0.000659,0.0016727\PG=C01 [X(C1H4)]\\@


          EVOLUTION
 IN THE BEGINNING GOD MADE MAN.
 HE WORKED THE DIRT WITH HIS HANDS.
 THEN GOD DECIDED TO GIVE MAN SCIENCE,
 MAN SHOULD BE USEFUL (LIKE AN APPLIANCE.)
 BUT SOON MAN'S KNOWLEDGE GREW TOO GREAT,
 TO THE HEADING SCIENCE HE COULDN'T RELATE
 SO GOD SAID "LETS HAVE DIFFERENT FIELDS,
 WE'LL DIVIDE THEM UP, SEE WHAT IT YIELDS."
 ENTER PHYSICS, CHEMISTRY, BIO
 THEY SPRANG UP AROUND THE NILE.
 BUT CHEMISTRY SURPASSED THE REST
 FAR AND AWAY IT WAS THE BEST.
 EXPERIMENT WAS GOD'S DECREE
 EXPERIMENT DID CHEMISTS WITH LOTS OF GLEE
 BUT SOON THEIR TESTS BEGAN TO BOG,
 THEY FOUND THEMSELVES DEEP IN A FOG.
 "GIVE US SOME HELP" THEY CRIED TO GOD.
 GOD LOOKED AROUND, THEN GAVE THE NOD.
 ENTER EINSTEIN, HEISENBERG, BOHR,
 REACTION PATHS WERE CLEAR ONCE MORE.
 WITH THEORISTS GOD SEND DIRECTION
 AND THEN HE STOPPED, HE'D MADE PERFECTION.
          -- THOMAS A. HOLME, 1981
 Job cpu time:       0 days  0 hours 12 minutes 37.0 seconds.
 File lengths (MBytes):  RWF=     66 Int=      0 D2E=      0 Chk=      3 Scr=      1
 Normal termination of Gaussian 09 at Sat Jun  3 09:00:16 2023.
