 Entering Gaussian System, Link 0=g09
 Input=geom.com
 Output=geom.log
 Initial command:
 /software/cinetica/g09d1/g09d01/d01/build-node-6-2-59348/src/main/l1.exe "/scratch/cc/140686/Gau-244533.inp" -scrdir="/scratch/cc/140686/"
 Entering Link 1 = /software/cinetica/g09d1/g09d01/d01/build-node-6-2-59348/src/main/l1.exe PID=    244534.
  
 Copyright (c) 1988,1990,1992,1993,1995,1998,2003,2009,2013,
            Gaussian, Inc.  All Rights Reserved.
  
 This is part of the Gaussian(R) 09 program.  It is based on
 the Gaussian(R) 03 system (copyright 2003, Gaussian, Inc.),
 the Gaussian(R) 98 system (copyright 1998, Gaussian, Inc.),
 the Gaussian(R) 94 system (copyright 1995, Gaussian, Inc.),
 the Gaussian 92(TM) system (copyright 1992, Gaussian, Inc.),
 the Gaussian 90(TM) system (copyright 1990, Gaussian, Inc.),
 the Gaussian 88(TM) system (copyright 1988, Gaussian, Inc.),
 the Gaussian 86(TM) system (copyright 1986, Carnegie Mellon
 University), and the Gaussian 82(TM) system (copyright 1983,
 Carnegie Mellon University). Gaussian is a federally registered
 trademark of Gaussian, Inc.
  
 This software contains proprietary and confidential information,
 including trade secrets, belonging to Gaussian, Inc.
  
 This software is provided under written license and may be
 used, copied, transmitted, or stored only in accord with that
 written license.
  
 The following legend is applicable only to US Government
 contracts under FAR:
  
                    RESTRICTED RIGHTS LEGEND
  
 Use, reproduction and disclosure by the US Government is
 subject to restrictions as set forth in subparagraphs (a)
 and (c) of the Commercial Computer Software - Restricted
 Rights clause in FAR 52.227-19.
  
 Gaussian, Inc.
 340 Quinnipiac St., Bldg. 40, Wallingford CT 06492
  
  
 ---------------------------------------------------------------
 Warning -- This program may not be used in any manner that
 competes with the business of Gaussian, Inc. or will provide
 assistance to any competitor of Gaussian, Inc.  The licensee
 of this program is prohibited from giving any competitor of
 Gaussian, Inc. access to this program.  By using this program,
 the user acknowledges that Gaussian, Inc. is engaged in the
 business of creating and licensing software in the field of
 computational chemistry and represents and warrants to the
 licensee that it is not a competitor of Gaussian, Inc. and that
 it will not use this program in any manner prohibited above.
 ---------------------------------------------------------------
  

 Cite this work as:
 Gaussian 09, Revision D.01,
 M. J. Frisch, G. W. Trucks, H. B. Schlegel, G. E. Scuseria, 
 M. A. Robb, J. R. Cheeseman, G. Scalmani, V. Barone, B. Mennucci, 
 G. A. Petersson, H. Nakatsuji, M. Caricato, X. Li, H. P. Hratchian, 
 A. F. Izmaylov, J. Bloino, G. Zheng, J. L. Sonnenberg, M. Hada, 
 M. Ehara, K. Toyota, R. Fukuda, J. Hasegawa, M. Ishida, T. Nakajima, 
 Y. Honda, O. Kitao, H. Nakai, T. Vreven, J. A. Montgomery, Jr., 
 J. E. Peralta, F. Ogliaro, M. Bearpark, J. J. Heyd, E. Brothers, 
 K. N. Kudin, V. N. Staroverov, T. Keith, R. Kobayashi, J. Normand, 
 K. Raghavachari, A. Rendell, J. C. Burant, S. S. Iyengar, J. Tomasi, 
 M. Cossi, N. Rega, J. M. Millam, M. Klene, J. E. Knox, J. B. Cross, 
 V. Bakken, C. Adamo, J. Jaramillo, R. Gomperts, R. E. Stratmann, 
 O. Yazyev, A. J. Austin, R. Cammi, C. Pomelli, J. W. Ochterski, 
 R. L. Martin, K. Morokuma, V. G. Zakrzewski, G. A. Voth, 
 P. Salvador, J. J. Dannenberg, S. Dapprich, A. D. Daniels, 
 O. Farkas, J. B. Foresman, J. V. Ortiz, J. Cioslowski, 
 and D. J. Fox, Gaussian, Inc., Wallingford CT, 2013.
 
 ******************************************
 Gaussian 09:  EM64L-G09RevD.01 24-Apr-2013
                 3-Jun-2023 
 ******************************************
 %mem=400MW
 %chk=tmp
 %NProcShared= 32
 Will use up to   32 processors via shared memory.
 ----------------------------------------------------------------------
 # uwb97xd/aug-cc-pvtz opt=(noeig,intern,maxcyc=50) # int=ultrafine nos
 ym freq iop(7/33=1) guess=(mix,always)
 ----------------------------------------------------------------------
 1/6=50,10=7,11=1,14=-1,18=40,26=4,38=1/1,3;
 2/12=2,15=1,17=6,18=5,29=3,40=1/2;
 3/5=16,6=1,7=10,11=2,16=1,25=1,30=1,71=1,74=-58,75=-5,116=2/1,2,3;
 4/13=-1/1;
 5/5=2,38=5/2;
 6/7=2,8=2,9=2,10=2,28=1/1;
 7/29=1,30=1,33=1/1,2,3,16;
 1/6=50,10=7,11=1,14=-1,18=40,26=4/3(2);
 2/15=1,29=3/2;
 99//99;
 2/15=1,29=3/2;
 3/5=16,6=1,7=10,11=2,16=1,25=1,30=1,71=1,74=-58,75=-5,116=2/1,2,3;
 4/13=-1/1;
 5/5=2,38=5/2;
 7/30=1,33=1/1,2,3,16;
 1/6=50,11=1,14=-1,18=40,26=4/3(-5);
 2/15=1,29=3/2;
 6/7=2,8=2,9=2,10=2,19=2,28=1/1;
 99/9=1/99;
 ------
 geom 0
 ------
 Symbolic Z-matrix:
 Charge =  0 Multiplicity = 1
 C1
 H2                   C1   R1
 H3                   C1   R2       H2   A2
 H4                   C1   R3       H2   A3       H3   D3       0
 H21                  C1   BB       H2   ANG1     H3   DH1      0
       Variables:
  R1                    1.0791                   
  R2                    1.0791                   
  R3                    1.0791                   
  A2                  117.1143                   
  A3                  117.1221                   
  D3                  213.1119                   
  DH1                 106.5501                   
  ANG1                 99.8829                   
       Constants:
  BB                    2.8                      
 

 GradGradGradGradGradGradGradGradGradGradGradGradGradGradGradGradGradGrad
 Berny optimization.
 Initialization pass.
                       ----------------------------
                       !    Initial Parameters    !
                       ! (Angstroms and Degrees)  !
 ----------------------                            ----------------------
 !      Name          Value   Derivative information (Atomic Units)     !
 ------------------------------------------------------------------------
 !       R1          1.0791   estimate D2E/DX2                          !
 !       R2          1.0791   estimate D2E/DX2                          !
 !       R3          1.0791   estimate D2E/DX2                          !
 !       A2        117.1143   estimate D2E/DX2                          !
 !       A3        117.1221   estimate D2E/DX2                          !
 !       D3        213.1119   estimate D2E/DX2                          !
 !       DH1       106.5501   estimate D2E/DX2                          !
 !      ANG1        99.8829   estimate D2E/DX2                          !
 !       BB          2.8      Frozen                                    !
 ------------------------------------------------------------------------
 Trust Radius=3.00D-01 FncErr=1.00D-07 GrdErr=1.00D-06
 Number of steps in this run=     50 maximum allowed number of steps=    100.
 GradGradGradGradGradGradGradGradGradGradGradGradGradGradGradGradGradGrad

 ---------------------------------------------------------------------------------------------------
                            Z-MATRIX (ANGSTROMS AND DEGREES)
   CD    Cent   Atom    N1       Length/X        N2       Alpha/Y        N3        Beta/Z          J
 ---------------------------------------------------------------------------------------------------
      1      1  C 
      2      2  H        1   1.079100(     1)
      3      3  H        1   1.079100(     2)      2  117.114(     5)
      4      4  H        1   1.079100(     3)      2  117.122(     6)      3  213.112(     8)      0
      5      5  H        1   2.800000(     4)      2   99.883(     7)      3  106.550(     9)      0
 ---------------------------------------------------------------------------------------------------
                         Z-Matrix orientation:                         
 ---------------------------------------------------------------------
 Center     Atomic      Atomic             Coordinates (Angstroms)
 Number     Number       Type             X           Y           Z
 ---------------------------------------------------------------------
      1          6           0        0.000000    0.000000    0.000000
      2          1           0        0.000000    0.000000    1.079100
      3          1           0        0.960506    0.000000   -0.491818
      4          1           0       -0.804469    0.524665   -0.491949
      5          1           0       -0.785754   -2.644170   -0.480578
 ---------------------------------------------------------------------
                    Distance matrix (angstroms):
                    1          2          3          4          5
     1  C    0.000000
     2  H    1.079100   0.000000
     3  H    1.079100   1.841292   0.000000
     4  H    1.079100   1.841369   1.841306   0.000000
     5  H    2.800000   3.168855   3.168783   3.168910   0.000000
 Symmetry turned off by external request.
 Stoichiometry    CH4
 Framework group  C1[X(CH4)]
 Deg. of freedom     9
 Full point group                 C1      NOp   1
 Rotational constants (GHZ):    147.9014651     53.7962455     53.7952457
 Standard basis: Aug-CC-pVTZ (5D, 7F)
   138 basis functions,   180 primitive gaussians,   155 cartesian basis functions
     5 alpha electrons        5 beta electrons
       nuclear repulsion energy        11.3240769647 Hartrees.
 NAtoms=    5 NActive=    5 NUniq=    5 SFac= 1.00D+00 NAtFMM=   60 NAOKFM=F Big=F
 Integral buffers will be    131072 words long.
 Raffenetti 2 integral format.
 Two-electron integral symmetry is turned off.
 Nuclear repulsion after empirical dispersion term =       11.3235076221 Hartrees.
 One-electron integrals computed using PRISM.
 NBasis=   138 RedAO= T EigKep=  1.09D-04  NBF=   138
 NBsUse=   138 1.00D-06 EigRej= -1.00D+00 NBFU=   138
 ExpMin= 2.53D-02 ExpMax= 8.24D+03 ExpMxC= 2.81D+02 IAcc=3 IRadAn=         5 AccDes= 0.00D+00
 Harris functional with IExCor= 4639 and IRadAn=       5 diagonalized for initial guess.
 HarFok:  IExCor= 4639 AccDes= 0.00D+00 IRadAn=         5 IDoV= 1 UseB2=F ITyADJ=14
 ICtDFT=  3500011 ScaDFX=  1.000000  1.000000  1.000000  1.000000
 FoFCou: FMM=F IPFlag=           0 FMFlag=      100000 FMFlg1=           0
         NFxFlg=           0 DoJE=T BraDBF=F KetDBF=T FulRan=T
         wScrn=  0.000000 ICntrl=     500 IOpCl=  0 I1Cent=   200000004 NGrid=           0
         NMat0=    1 NMatS0=      1 NMatT0=    0 NMatD0=    1 NMtDS0=    0 NMtDT0=    0
 Symmetry not used in FoFCou.
 Mixing orbitals, IMix= 1 IMixAn=  0 NRI=1 NE=    5 Coef=  7.07106781D-01  7.07106781D-01
 Mixing orbitals, IMix= 1 IMixAn=  0 NRI=1 NE=    5 Coef= -7.07106781D-01  7.07106781D-01
 Initial guess <Sx>= 0.0000 <Sy>= 0.0000 <Sz>= 0.0000 <S**2>= 1.0000 S= 0.6180
 Keep R1 and R2 ints in memory in canonical form, NReq=186089253.
 Requested convergence on RMS density matrix=1.00D-08 within 128 cycles.
 Requested convergence on MAX density matrix=1.00D-06.
 Requested convergence on             energy=1.00D-06.
 No special actions if energy rises.
 SCF Done:  E(UwB97XD) =  -40.3435771097     A.U. after   14 cycles
            NFock= 14  Conv=0.97D-08     -V/T= 2.0077
 <Sx>= 0.0000 <Sy>= 0.0000 <Sz>= 0.0000 <S**2>= 0.8995 S= 0.5722
 <L.S>=  0.00000000000    
 Annihilation of the first spin contaminant:
 S**2 before annihilation     0.8995,   after     0.0211

 **********************************************************************

            Population analysis using the SCF density.

 **********************************************************************

 Alpha  occ. eigenvalues --  -10.30587  -0.79264  -0.51003  -0.51002  -0.32877
 Alpha virt. eigenvalues --   -0.00709   0.03844   0.05142   0.05142   0.11263
 Alpha virt. eigenvalues --    0.11881   0.12889   0.12890   0.13962   0.20126
 Alpha virt. eigenvalues --    0.20127   0.20379   0.20379   0.26842   0.30465
 Alpha virt. eigenvalues --    0.30466   0.31300   0.32714   0.32715   0.34486
 Alpha virt. eigenvalues --    0.34517   0.38087   0.38464   0.38464   0.41765
 Alpha virt. eigenvalues --    0.41766   0.41926   0.46457   0.46457   0.59347
 Alpha virt. eigenvalues --    0.59480   0.59480   0.59869   0.69548   0.74496
 Alpha virt. eigenvalues --    0.74496   0.78300   0.78300   0.79392   0.79393
 Alpha virt. eigenvalues --    0.80309   0.81549   0.89219   0.92487   0.92488
 Alpha virt. eigenvalues --    0.94329   0.95811   0.95811   0.97087   0.97087
 Alpha virt. eigenvalues --    1.01055   1.01186   1.01187   1.03264   1.06711
 Alpha virt. eigenvalues --    1.06712   1.11633   1.11634   1.17390   1.17392
 Alpha virt. eigenvalues --    1.18559   1.23465   1.40037   1.40040   1.42298
 Alpha virt. eigenvalues --    1.48105   1.48106   1.51337   1.51432   1.51433
 Alpha virt. eigenvalues --    1.52044   1.54555   1.74511   1.75941   1.75942
 Alpha virt. eigenvalues --    1.89634   1.89636   1.90377   2.04073   2.04075
 Alpha virt. eigenvalues --    2.07893   2.79296   2.79297   2.84981   2.89197
 Alpha virt. eigenvalues --    2.92219   3.07080   3.07081   3.34924   3.34925
 Alpha virt. eigenvalues --    3.37301   3.37332   3.38460   3.38461   3.42936
 Alpha virt. eigenvalues --    3.48739   3.48740   3.72160   3.72414   3.72414
 Alpha virt. eigenvalues --    3.74512   3.79611   3.79612   3.88802   3.88815
 Alpha virt. eigenvalues --    3.94592   3.94593   4.00176   4.11107   4.11109
 Alpha virt. eigenvalues --    4.17330   4.19605   4.19608   4.24716   4.48364
 Alpha virt. eigenvalues --    4.48365   4.48872   4.64518   4.64520   4.69766
 Alpha virt. eigenvalues --    4.84075   4.99473   4.99479   5.05888   5.05889
 Alpha virt. eigenvalues --    5.21900   5.47325   5.47330   5.87843   5.91864
 Alpha virt. eigenvalues --    6.20215   6.20223  15.96358
  Beta  occ. eigenvalues --  -10.29514  -0.75161  -0.49790  -0.49788  -0.39165
  Beta virt. eigenvalues --   -0.00538   0.04077   0.05288   0.05288   0.06353
  Beta virt. eigenvalues --    0.12914   0.12914   0.13264   0.14192   0.19992
  Beta virt. eigenvalues --    0.19992   0.20384   0.20384   0.26102   0.29998
  Beta virt. eigenvalues --    0.29999   0.30245   0.32742   0.32742   0.34461
  Beta virt. eigenvalues --    0.34547   0.38270   0.38574   0.38770   0.38771
  Beta virt. eigenvalues --    0.41658   0.41659   0.46545   0.46546   0.50960
  Beta virt. eigenvalues --    0.59707   0.59708   0.60982   0.71518   0.74956
  Beta virt. eigenvalues --    0.74957   0.78907   0.78908   0.80337   0.80338
  Beta virt. eigenvalues --    0.80559   0.81532   0.89234   0.91940   0.91940
  Beta virt. eigenvalues --    0.92596   0.94156   0.94157   0.96981   0.96982
  Beta virt. eigenvalues --    1.00192   1.00895   1.00897   1.03070   1.06169
  Beta virt. eigenvalues --    1.06170   1.11577   1.11577   1.16837   1.17680
  Beta virt. eigenvalues --    1.17681   1.21910   1.40082   1.40085   1.41009
  Beta virt. eigenvalues --    1.48359   1.48361   1.51443   1.52059   1.52060
  Beta virt. eigenvalues --    1.53722   1.55178   1.75771   1.76749   1.76750
  Beta virt. eigenvalues --    1.90207   1.90780   1.90784   2.04303   2.04306
  Beta virt. eigenvalues --    2.10005   2.46633   2.80234   2.80237   2.89325
  Beta virt. eigenvalues --    2.95695   3.09655   3.09660   3.37474   3.37477
  Beta virt. eigenvalues --    3.37817   3.39764   3.42052   3.42054   3.46468
  Beta virt. eigenvalues --    3.50267   3.50270   3.68570   3.68571   3.73297
  Beta virt. eigenvalues --    3.73298   3.73590   3.74881   3.76286   3.76287
  Beta virt. eigenvalues --    3.84752   3.84752   3.89035   3.96484   3.96484
  Beta virt. eigenvalues --    4.02346   4.18137   4.20680   4.20683   4.48383
  Beta virt. eigenvalues --    4.48383   4.49158   4.65036   4.65038   4.69512
  Beta virt. eigenvalues --    4.85666   4.99925   4.99931   5.08270   5.08271
  Beta virt. eigenvalues --    5.22960   5.48069   5.48074   5.89326   5.92995
  Beta virt. eigenvalues --    6.20995   6.21004  15.98817
          Condensed to atoms (all electrons):
               1          2          3          4          5
     1  C    5.918078   0.350817   0.350700   0.350887   0.042463
     2  H    0.350817   0.291758   0.010028   0.010014  -0.002358
     3  H    0.350700   0.010028   0.291674   0.010016  -0.002371
     4  H    0.350887   0.010014   0.010016   0.291858  -0.002364
     5  H    0.042463  -0.002358  -0.002371  -0.002364   0.970966
          Atomic-Atomic Spin Densities.
               1          2          3          4          5
     1  C    0.915997   0.016551   0.016653   0.016508  -0.003766
     2  H    0.016551  -0.028647   0.002101   0.002110   0.002983
     3  H    0.016653   0.002101  -0.028585   0.002111   0.002996
     4  H    0.016508   0.002110   0.002111  -0.028727   0.002989
     5  H   -0.003766   0.002983   0.002996   0.002989  -0.952510
 Mulliken charges and spin densities:
               1          2
     1  C   -1.012945   0.961942
     2  H    0.339741  -0.004902
     3  H    0.339953  -0.004724
     4  H    0.339589  -0.005008
     5  H   -0.006337  -0.947308
 Sum of Mulliken charges =  -0.00000  -0.00000
 Mulliken charges and spin densities with hydrogens summed into heavy atoms:
               1          2
     1  C   -0.000000  -0.000000
 Electronic spatial extent (au):  <R**2>=             61.3925
 Charge=             -0.0000 electrons
 Dipole moment (field-independent basis, Debye):
    X=              0.1784    Y=              0.6002    Z=              0.1091  Tot=              0.6356
 Quadrupole moment (field-independent basis, Debye-Ang):
   XX=             -8.8815   YY=            -10.4720   ZZ=             -8.7849
   XY=             -0.5185   XZ=             -0.0941   YZ=             -0.3171
 Traceless Quadrupole moment (field-independent basis, Debye-Ang):
   XX=              0.4979   YY=             -1.0925   ZZ=              0.5945
   XY=             -0.5185   XZ=             -0.0941   YZ=             -0.3171
 Octapole moment (field-independent basis, Debye-Ang**2):
  XXX=              3.6313  YYY=             11.4654  ZZZ=              2.9857  XYY=              0.9716
  XXY=              4.0245  XXZ=             -0.0737  XZZ=              1.1295  YZZ=              3.8014
  YYZ=              0.5944  XYZ=              0.2179
 Hexadecapole moment (field-independent basis, Debye-Ang**3):
 XXXX=            -22.3364 YYYY=            -76.4733 ZZZZ=            -18.8373 XXXY=             -9.0074
 XXXZ=             -1.8255 YYYX=             -8.6379 YYYZ=             -5.2832 ZZZX=             -1.5936
 ZZZY=             -5.3630 XXYY=            -16.5769 XXZZ=             -6.9736 YYZZ=            -16.2327
 XXYZ=             -1.9920 YYXZ=             -0.3365 ZZXY=             -3.0180
 N-N= 1.132350762206D+01 E-N=-1.154717928098D+02  KE= 4.003385011039D+01
                          Isotropic Fermi Contact Couplings
        Atom                 a.u.       MegaHertz       Gauss      10(-4) cm-1
     1  C(13)              0.07156      40.22273      14.35247      13.41686
     2  H(1)              -0.01050     -23.46235      -8.37195      -7.82620
     3  H(1)              -0.01050     -23.45892      -8.37072      -7.82505
     4  H(1)              -0.01050     -23.47616      -8.37688      -7.83080
     5  H(1)              -0.28055    -627.00305    -223.73027    -209.14570
 --------------------------------------------------------
       Center         ----  Spin Dipole Couplings  ----
                      3XX-RR        3YY-RR        3ZZ-RR
 --------------------------------------------------------
     1   Atom       -0.392551      0.861230     -0.468679
     2   Atom       -0.061321     -0.010581      0.071902
     3   Atom        0.043219     -0.010582     -0.032637
     4   Atom        0.023640      0.008987     -0.032627
     5   Atom       -0.007527      0.016510     -0.008983
 --------------------------------------------------------
                        XY            XZ            YZ
 --------------------------------------------------------
     1   Atom        0.408862      0.074312      0.249972
     2   Atom        0.016546     -0.001240     -0.004174
     3   Atom        0.003817     -0.054776      0.016633
     4   Atom       -0.026157      0.054962     -0.015996
     5   Atom        0.007833      0.001424      0.004793
 --------------------------------------------------------


 ---------------------------------------------------------------------------------
              Anisotropic Spin Dipole Couplings in Principal Axis System
 ---------------------------------------------------------------------------------

       Atom             a.u.   MegaHertz   Gauss  10(-4) cm-1        Axes

              Baa    -0.5141   -68.989   -24.617   -23.012 -0.0334 -0.1691  0.9850
     1 C(13)  Bbb    -0.5141   -68.987   -24.616   -23.012  0.9592 -0.2823 -0.0159
              Bcc     1.0282   137.976    49.233    46.024  0.2807  0.9443  0.1716
 
              Baa    -0.0662   -35.342   -12.611   -11.789  0.9585 -0.2850 -0.0000
     2 H(1)   Bbb    -0.0059    -3.151    -1.124    -1.051  0.2845  0.9570  0.0559
              Bcc     0.0721    38.493    13.735    12.840 -0.0159 -0.0536  0.9984
 
              Baa    -0.0662   -35.343   -12.611   -11.789  0.4369 -0.2849  0.8532
     3 H(1)   Bbb    -0.0059    -3.153    -1.125    -1.052  0.1795  0.9570  0.2277
              Bcc     0.0721    38.496    13.736    12.841  0.8814 -0.0537 -0.4693
 
              Baa    -0.0662   -35.341   -12.611   -11.789 -0.5217  0.0000  0.8531
     4 H(1)   Bbb    -0.0059    -3.147    -1.123    -1.050  0.3726  0.8996  0.2279
              Bcc     0.0721    38.488    13.734    12.838  0.7675 -0.4368  0.4693
 
              Baa    -0.0099    -5.258    -1.876    -1.754  0.9329 -0.2263 -0.2800
     5 H(1)   Bbb    -0.0099    -5.258    -1.876    -1.754  0.2256 -0.2387  0.9445
              Bcc     0.0197    10.516     3.752     3.508  0.2806  0.9444  0.1717
 

 ---------------------------------------------------------------------------------

 DipInt: DoE/N= T T RetVal/Mat= T F Init=T NMatP=  1 IDeriv=0 Min/MaxMlt=  1  1
 Entering OneElI...
 Multipole integrals L=1 to 1 MinM= 0 MaxM= 0.
 Requested accuracy = 0.1000D-12
 PrsmSu:  NPrtUS=   1 ThrOK=F IAlg=1 NPAlg=1 LenDen=           0.
 Prism:   IPart=     0 DynPar=F LinDyn=F Incr=          12.
 PRISM was handed   419323780 working-precision words and  1275 shell-pairs
 IPart=  0 NShTot=        1275 NBatch=          39 AvBLen=        32.7
 PrSmSu:  NxtVal=             13.
 Entering OneElI...
 Calculate overlap and kinetic energy integrals
    NBasis = 155  MinDer = 1  MaxDer = 1
 Requested accuracy = 0.1000D-12
 PrsmSu:  NPrtUS=  32 ThrOK=T IAlg=1 NPAlg=1 LenDen=           0.
 Prism:   IPart=     0 DynPar=F LinDyn=F Incr=           1.
 PRISM was handed    13082643 working-precision words and  1275 shell-pairs
 PRISM was handed    13082643 working-precision words and  1275 shell-pairs
 PRISM was handed    13082643 working-precision words and  1275 shell-pairs
 PRISM was handed    13082643 working-precision words and  1275 shell-pairs
 PRISM was handed    13082643 working-precision words and  1275 shell-pairs
 PRISM was handed    13082643 working-precision words and  1275 shell-pairs
 PRISM was handed    13082643 working-precision words and  1275 shell-pairs
 PRISM was handed    13082643 working-precision words and  1275 shell-pairs
 PRISM was handed    13082643 working-precision words and  1275 shell-pairs
 PRISM was handed    13082643 working-precision words and  1275 shell-pairs
 PRISM was handed    13082643 working-precision words and  1275 shell-pairs
 PRISM was handed    13082643 working-precision words and  1275 shell-pairs
 PRISM was handed    13082643 working-precision words and  1275 shell-pairs
 PRISM was handed    13082643 working-precision words and  1275 shell-pairs
 PRISM was handed    13082643 working-precision words and  1275 shell-pairs
 PRISM was handed    13082643 working-precision words and  1275 shell-pairs
 PRISM was handed    13082643 working-precision words and  1275 shell-pairs
 PRISM was handed    13082643 working-precision words and  1275 shell-pairs
 PRISM was handed    13082643 working-precision words and  1275 shell-pairs
 PRISM was handed    13082643 working-precision words and  1275 shell-pairs
 PRISM was handed    13082643 working-precision words and  1275 shell-pairs
 PRISM was handed    13082643 working-precision words and  1275 shell-pairs
 PRISM was handed    13082643 working-precision words and  1275 shell-pairs
 PRISM was handed    13082643 working-precision words and  1275 shell-pairs
 PRISM was handed    13082643 working-precision words and  1275 shell-pairs
 PRISM was handed    13082643 working-precision words and  1275 shell-pairs
 PRISM was handed    13082643 working-precision words and  1275 shell-pairs
 PRISM was handed    13082643 working-precision words and  1275 shell-pairs
 PRISM was handed    13082643 working-precision words and  1275 shell-pairs
 PRISM was handed    13082643 working-precision words and  1275 shell-pairs
 PRISM was handed    13082643 working-precision words and  1275 shell-pairs
 PRISM was handed    13082643 working-precision words and  1275 shell-pairs
 IPart= 23 NShTot=          34 NBatch=          11 AvBLen=         3.1
 IPart= 11 NShTot=          41 NBatch=          17 AvBLen=         2.4
 IPart= 26 NShTot=          32 NBatch=          11 AvBLen=         2.9
 IPart=  4 NShTot=          49 NBatch=          22 AvBLen=         2.2
 IPart= 24 NShTot=          32 NBatch=          11 AvBLen=         2.9
 IPart= 19 NShTot=          35 NBatch=          12 AvBLen=         2.9
 IPart= 18 NShTot=          35 NBatch=          12 AvBLen=         2.9
 IPart= 29 NShTot=          31 NBatch=          11 AvBLen=         2.8
 IPart= 14 NShTot=          40 NBatch=          17 AvBLen=         2.4
 IPart= 21 NShTot=          35 NBatch=          12 AvBLen=         2.9
 IPart=  0 NShTot=          67 NBatch=          38 AvBLen=         1.8
 IPart=  6 NShTot=          46 NBatch=          21 AvBLen=         2.2
 IPart= 27 NShTot=          32 NBatch=          11 AvBLen=         2.9
 IPart= 25 NShTot=          32 NBatch=          11 AvBLen=         2.9
 IPart= 12 NShTot=          40 NBatch=          17 AvBLen=         2.4
 IPart= 10 NShTot=          45 NBatch=          20 AvBLen=         2.3
 IPart=  8 NShTot=          45 NBatch=          20 AvBLen=         2.3
 IPart= 16 NShTot=          35 NBatch=          12 AvBLen=         2.9
 IPart=  2 NShTot=          55 NBatch=          28 AvBLen=         2.0
 IPart=  3 NShTot=          50 NBatch=          23 AvBLen=         2.2
 IPart= 30 NShTot=          29 NBatch=           9 AvBLen=         3.2
 IPart= 13 NShTot=          40 NBatch=          17 AvBLen=         2.4
 IPart= 15 NShTot=          35 NBatch=          12 AvBLen=         2.9
 IPart=  1 NShTot=          59 NBatch=          31 AvBLen=         1.9
 IPart= 22 NShTot=          34 NBatch=          11 AvBLen=         3.1
 IPart= 28 NShTot=          31 NBatch=          11 AvBLen=         2.8
 IPart=  7 NShTot=          46 NBatch=          21 AvBLen=         2.2
 IPart= 20 NShTot=          35 NBatch=          12 AvBLen=         2.9
 IPart=  9 NShTot=          45 NBatch=          20 AvBLen=         2.3
 IPart=  5 NShTot=          46 NBatch=          21 AvBLen=         2.2
 IPart= 17 NShTot=          35 NBatch=          12 AvBLen=         2.9
 IPart= 31 NShTot=          29 NBatch=           9 AvBLen=         3.2
 PrSmSu:  NxtVal=             33.
 Entering OneElI...
 Calculate potential energy integrals
    NBasis = 155  MinDer = 1  MaxDer = 1
 Requested accuracy = 0.1000D-12
 PrsmSu:  NPrtUS=  32 ThrOK=T IAlg=1 NPAlg=1 LenDen=           0.
 Prism:   IPart=     0 DynPar=F LinDyn=F Incr=           1.
 PRISM was handed    13084115 working-precision words and  1274 shell-pairs
 PRISM was handed    13084115 working-precision words and  1274 shell-pairs
 PRISM was handed    13084115 working-precision words and  1274 shell-pairs
 PRISM was handed    13084115 working-precision words and  1274 shell-pairs
 PRISM was handed    13084115 working-precision words and  1274 shell-pairs
 PRISM was handed    13084115 working-precision words and  1274 shell-pairs
 PRISM was handed    13084115 working-precision words and  1274 shell-pairs
 PRISM was handed    13084115 working-precision words and  1274 shell-pairs
 PRISM was handed    13084115 working-precision words and  1274 shell-pairs
 PRISM was handed    13084115 working-precision words and  1274 shell-pairs
 PRISM was handed    13084115 working-precision words and  1274 shell-pairs
 PRISM was handed    13084115 working-precision words and  1274 shell-pairs
 PRISM was handed    13084115 working-precision words and  1274 shell-pairs
 PRISM was handed    13084115 working-precision words and  1274 shell-pairs
 PRISM was handed    13084115 working-precision words and  1274 shell-pairs
 PRISM was handed    13084115 working-precision words and  1274 shell-pairs
 PRISM was handed    13084115 working-precision words and  1274 shell-pairs
 PRISM was handed    13084115 working-precision words and  1274 shell-pairs
 PRISM was handed    13084115 working-precision words and  1274 shell-pairs
 PRISM was handed    13084115 working-precision words and  1274 shell-pairs
 PRISM was handed    13084115 working-precision words and  1274 shell-pairs
 PRISM was handed    13084115 working-precision words and  1274 shell-pairs
 PRISM was handed    13084115 working-precision words and  1274 shell-pairs
 PRISM was handed    13084115 working-precision words and  1274 shell-pairs
 PRISM was handed    13084115 working-precision words and  1274 shell-pairs
 PRISM was handed    13084115 working-precision words and  1274 shell-pairs
 PRISM was handed    13084115 working-precision words and  1274 shell-pairs
 PRISM was handed    13084115 working-precision words and  1274 shell-pairs
 PRISM was handed    13084115 working-precision words and  1274 shell-pairs
 PRISM was handed    13084115 working-precision words and  1274 shell-pairs
 PRISM was handed    13084115 working-precision words and  1274 shell-pairs
 PRISM was handed    13084115 working-precision words and  1274 shell-pairs
 IPart= 17 NShTot=         175 NBatch=          35 AvBLen=         5.0
 IPart= 24 NShTot=         165 NBatch=          33 AvBLen=         5.0
 IPart= 26 NShTot=         165 NBatch=          33 AvBLen=         5.0
 IPart= 31 NShTot=         145 NBatch=          29 AvBLen=         5.0
 IPart=  7 NShTot=         230 NBatch=          46 AvBLen=         5.0
 IPart=  5 NShTot=         235 NBatch=          47 AvBLen=         5.0
 IPart= 15 NShTot=         175 NBatch=          35 AvBLen=         5.0
 IPart=  9 NShTot=         220 NBatch=          44 AvBLen=         5.0
 IPart= 22 NShTot=         170 NBatch=          34 AvBLen=         5.0
 IPart= 20 NShTot=         175 NBatch=          35 AvBLen=         5.0
 IPart= 13 NShTot=         200 NBatch=          40 AvBLen=         5.0
 IPart= 28 NShTot=         155 NBatch=          31 AvBLen=         5.0
 IPart= 11 NShTot=         200 NBatch=          40 AvBLen=         5.0
 IPart=  1 NShTot=         300 NBatch=          60 AvBLen=         5.0
 IPart= 25 NShTot=         165 NBatch=          33 AvBLen=         5.0
 IPart= 16 NShTot=         175 NBatch=          35 AvBLen=         5.0
 IPart= 21 NShTot=         175 NBatch=          35 AvBLen=         5.0
 IPart= 19 NShTot=         175 NBatch=          35 AvBLen=         5.0
 IPart=  0 NShTot=         340 NBatch=          68 AvBLen=         5.0
 IPart=  3 NShTot=         250 NBatch=          50 AvBLen=         5.0
 IPart= 23 NShTot=         170 NBatch=          34 AvBLen=         5.0
 IPart= 30 NShTot=         145 NBatch=          29 AvBLen=         5.0
 IPart=  2 NShTot=         280 NBatch=          56 AvBLen=         5.0
 IPart= 10 NShTot=         210 NBatch=          42 AvBLen=         5.0
 IPart= 27 NShTot=         165 NBatch=          33 AvBLen=         5.0
 IPart=  4 NShTot=         245 NBatch=          49 AvBLen=         5.0
 IPart= 14 NShTot=         185 NBatch=          37 AvBLen=         5.0
 IPart=  8 NShTot=         220 NBatch=          44 AvBLen=         5.0
 IPart= 29 NShTot=         155 NBatch=          31 AvBLen=         5.0
 IPart=  6 NShTot=         230 NBatch=          46 AvBLen=         5.0
 IPart= 12 NShTot=         200 NBatch=          40 AvBLen=         5.0
 IPart= 18 NShTot=         175 NBatch=          35 AvBLen=         5.0
 PrSmSu:  NxtVal=             33.
 l701 out
 I=    0 X=   7.018888223139D-02 Y=   2.361318219691D-01 Z=   4.291845073354D-02
 I=    1 X=  -2.557313771114D-01 Y=  -8.608944162738D-01 Z=  -1.563384204494D-01
 I=    2 X=   9.200227255281D-03 Y=   3.105136101205D-02 Z=   2.358121546089D+00
 I=    3 X=   2.102878471602D+00 Y=   3.109502381065D-02 Z=  -1.066500146959D+00
 I=    4 X=  -1.744572810997D+00 Y=   1.174881218161D+00 Z=  -1.066922462684D+00
 I=    5 X=  -1.117745107484D-01 Y=  -3.761331867095D-01 Z=  -6.836051599651D-02
 ICntrl=      2127.
 Calling FoFJK, ICntrl=      2127 FMM=F ISym2X=0 I1Cent= 0 IOpClX= 1 NMat=1 NMatS=1 NMatT=0.
 FoFJK:  IHMeth= 1 ICntrl=    2127 DoSepK=T KAlg= 0 I1Cent=   0 FoldK=F
 IRaf=         1 NMat=   1 IRICut=       1 DoRegI=T DoRafI=F ISym2E= 0.
 FoFCou: FMM=F IPFlag=           0 FMFlag=      100000 FMFlg1=         800
         NFxFlg=           0 DoJE=F BraDBF=F KetDBF=F FulRan=T
         wScrn=  0.000000 ICntrl=    2527 IOpCl=  0 I1Cent=           0 NGrid=           0
         NMat0=    1 NMatS0=      1 NMatT0=    0 NMatD0=    1 NMtDS0=    0 NMtDT0=    0
 Symmetry not used in FoFCou.
 FoFCou:  KetSym=F NOpSet=  1 NOpAb=1 NOp=  1.
 FoFCou:  CnvScl= 1.00D+00 Thresh= 1.00D-10 IAcrcy=      10.
 PrismS was handed   419298736 working-precision words and  1275 shell-pairs
 FoFCou: LinMIO=F DoNuc=F BraDBF=F KetDBF=F HaveP=T PDBF=F HaveZ=T HaveW=F
         NIJTC =      10 NIJTAt=       0 NIJTCD=       0 NIJTT =      10
         IJTBeg=       1 IJTEnd=      10 KLTBeg=       1 KLTEnd=      10
         IPTBeg=       1 IPTEnd=      10 IPTBCv=       1 IPTECv=      10
         IZTBeg=       1 IZTEnd=      10 IZTBCv=       1 IZTECv=      10
         IWTBeg=      11 IWTEnd=      10 IWTBCv=      11 IWTECv=      10
         INTBeg=       1 INTEnd=       0 IFTBCv=       1 IFTECv=      10
 NCel replicated for PrismC:     1
 CoulSu:  IncDef=  1024 NBBP=         813450 NTPThr=   100 NPartT=   32 Incr=         254 LDynOK=F.
 CoulSu:  NPrtUS=  32 ThrOK=T IAlg=1 NPAlg=1 LenDen=           0 LWGrdD=           0 DoCopy=F.
 Enter PrismC: JobTyp=21 DoJE=F Cont=F.
 Enter PrismC: JobTyp=21 DoJE=F Cont=F.
 Enter PrismC: JobTyp=21 DoJE=F Cont=F.
 Enter PrismC: JobTyp=21 DoJE=F Cont=F.
 PrismC:  IPart=     0 DynPar=T LinDyn=F Incr=         254 UseFst=F UseS4=T IGathr=2.
 PrismC was handed    13083069 working-precision words and  1275 shell-pairs
 Enter PrismC: JobTyp=21 DoJE=F Cont=F.
 Enter PrismC: JobTyp=21 DoJE=F Cont=F.
 Enter PrismC: JobTyp=21 DoJE=F Cont=F.
 Enter PrismC: JobTyp=21 DoJE=F Cont=F.
 Enter PrismC: JobTyp=21 DoJE=F Cont=F.
 Enter PrismC: JobTyp=21 DoJE=F Cont=F.
 Enter PrismC: JobTyp=21 DoJE=F Cont=F.
 Enter PrismC: JobTyp=21 DoJE=F Cont=F.
 Enter PrismC: JobTyp=21 DoJE=F Cont=F.
 Enter PrismC: JobTyp=21 DoJE=F Cont=F.
 Enter PrismC: JobTyp=21 DoJE=F Cont=F.
 Enter PrismC: JobTyp=21 DoJE=F Cont=F.
 Enter PrismC: JobTyp=21 DoJE=F Cont=F.
 Enter PrismC: JobTyp=21 DoJE=F Cont=F.
 PrismC was handed    13083069 working-precision words and  1275 shell-pairs
 Enter PrismC: JobTyp=21 DoJE=F Cont=F.
 PrismC was handed    13083069 working-precision words and  1275 shell-pairs
 Enter PrismC: JobTyp=21 DoJE=F Cont=F.
 PrismC was handed    13083069 working-precision words and  1275 shell-pairs
 Enter PrismC: JobTyp=21 DoJE=F Cont=F.
 PrismC was handed    13083069 working-precision words and  1275 shell-pairs
 Enter PrismC: JobTyp=21 DoJE=F Cont=F.
 PrismC was handed    13083069 working-precision words and  1275 shell-pairs
 Enter PrismC: JobTyp=21 DoJE=F Cont=F.
 PrismC was handed    13083069 working-precision words and  1275 shell-pairs
 Enter PrismC: JobTyp=21 DoJE=F Cont=F.
 PrismC was handed    13083069 working-precision words and  1275 shell-pairs
 Enter PrismC: JobTyp=21 DoJE=F Cont=F.
 PrismC was handed    13083069 working-precision words and  1275 shell-pairs
 Enter PrismC: JobTyp=21 DoJE=F Cont=F.
 PrismC was handed    13083069 working-precision words and  1275 shell-pairs
 Enter PrismC: JobTyp=21 DoJE=F Cont=F.
 PrismC was handed    13083069 working-precision words and  1275 shell-pairs
 Enter PrismC: JobTyp=21 DoJE=F Cont=F.
 PrismC was handed    13083069 working-precision words and  1275 shell-pairs
 Enter PrismC: JobTyp=21 DoJE=F Cont=F.
 PrismC was handed    13083069 working-precision words and  1275 shell-pairs
 Enter PrismC: JobTyp=21 DoJE=F Cont=F.
 PrismC was handed    13083069 working-precision words and  1275 shell-pairs
 Enter PrismC: JobTyp=21 DoJE=F Cont=F.
 PrismC was handed    13083069 working-precision words and  1275 shell-pairs
 PrismC was handed    13083069 working-precision words and  1275 shell-pairs
 PrismC was handed    13083069 working-precision words and  1275 shell-pairs
 Enter PrismC: JobTyp=21 DoJE=F Cont=F.
 PrismC was handed    13083069 working-precision words and  1275 shell-pairs
 PrismC was handed    13083069 working-precision words and  1275 shell-pairs
 PrismC was handed    13083069 working-precision words and  1275 shell-pairs
 PrismC was handed    13083069 working-precision words and  1275 shell-pairs
 PrismC was handed    13083069 working-precision words and  1275 shell-pairs
 PrismC was handed    13083069 working-precision words and  1275 shell-pairs
 PrismC was handed    13083069 working-precision words and  1275 shell-pairs
 PrismC was handed    13083069 working-precision words and  1275 shell-pairs
 PrismC was handed    13083069 working-precision words and  1275 shell-pairs
 PrismC was handed    13083069 working-precision words and  1275 shell-pairs
 PrismC was handed    13083069 working-precision words and  1275 shell-pairs
 PrismC was handed    13083069 working-precision words and  1275 shell-pairs
 PrismC was handed    13083069 working-precision words and  1275 shell-pairs
 PrismC was handed    13083069 working-precision words and  1275 shell-pairs
 PrismC was handed    13083069 working-precision words and  1275 shell-pairs
 IPart= 28 NShTot=       25692 NShNF=       25692 NShFF=           0 NBatch=         246 AvBLen=       104.4
 IPart= 22 NShTot=       23689 NShNF=       23689 NShFF=           0 NBatch=         254 AvBLen=        93.3
 IPart= 13 NShTot=       26794 NShNF=       26794 NShFF=           0 NBatch=         247 AvBLen=       108.5
 IPart= 19 NShTot=       25341 NShNF=       25341 NShFF=           0 NBatch=         192 AvBLen=       132.0
 IPart=  3 NShTot=       24031 NShNF=       24031 NShFF=           0 NBatch=         237 AvBLen=       101.4
 IPart= 24 NShTot=       23044 NShNF=       23044 NShFF=           0 NBatch=         254 AvBLen=        90.7
 IPart=  8 NShTot=       22976 NShNF=       22976 NShFF=           0 NBatch=         223 AvBLen=       103.0
 IPart= 11 NShTot=       27353 NShNF=       27353 NShFF=           0 NBatch=         262 AvBLen=       104.4
 IPart= 26 NShTot=       25503 NShNF=       25503 NShFF=           0 NBatch=         263 AvBLen=        97.0
 IPart=  0 NShTot=       17830 NShNF=       17830 NShFF=           0 NBatch=         194 AvBLen=        91.9
 IPart= 17 NShTot=       25456 NShNF=       25456 NShFF=           0 NBatch=         242 AvBLen=       105.2
 IPart=  6 NShTot=       24423 NShNF=       24423 NShFF=           0 NBatch=         228 AvBLen=       107.1
 IPart=  7 NShTot=       23057 NShNF=       23057 NShFF=           0 NBatch=         286 AvBLen=        80.6
 IPart= 29 NShTot=       21010 NShNF=       21010 NShFF=           0 NBatch=         239 AvBLen=        87.9
 IPart= 30 NShTot=       23713 NShNF=       23713 NShFF=           0 NBatch=         248 AvBLen=        95.6
 IPart=  4 NShTot=       26243 NShNF=       26243 NShFF=           0 NBatch=         262 AvBLen=       100.2
 IPart=  1 NShTot=       20879 NShNF=       20879 NShFF=           0 NBatch=         264 AvBLen=        79.1
 IPart= 25 NShTot=       27394 NShNF=       27394 NShFF=           0 NBatch=         259 AvBLen=       105.8
 IPart= 12 NShTot=       24809 NShNF=       24809 NShFF=           0 NBatch=         246 AvBLen=       100.8
 IPart= 15 NShTot=       24801 NShNF=       24801 NShFF=           0 NBatch=         265 AvBLen=        93.6
 IPart= 27 NShTot=       26381 NShNF=       26381 NShFF=           0 NBatch=         241 AvBLen=       109.5
 IPart= 20 NShTot=       25036 NShNF=       25036 NShFF=           0 NBatch=         264 AvBLen=        94.8
 IPart= 16 NShTot=       23914 NShNF=       23914 NShFF=           0 NBatch=         252 AvBLen=        94.9
 IPart= 31 NShTot=       23522 NShNF=       23522 NShFF=           0 NBatch=         257 AvBLen=        91.5
 IPart= 10 NShTot=       22789 NShNF=       22789 NShFF=           0 NBatch=         235 AvBLen=        97.0
 IPart= 18 NShTot=       20750 NShNF=       20750 NShFF=           0 NBatch=         239 AvBLen=        86.8
 IPart=  2 NShTot=       20521 NShNF=       20521 NShFF=           0 NBatch=         243 AvBLen=        84.4
 IPart=  5 NShTot=       28953 NShNF=       28953 NShFF=           0 NBatch=         272 AvBLen=       106.4
 IPart= 23 NShTot=       23929 NShNF=       23929 NShFF=           0 NBatch=         256 AvBLen=        93.5
 IPart= 14 NShTot=       22607 NShNF=       22607 NShFF=           0 NBatch=         239 AvBLen=        94.6
 IPart= 21 NShTot=       24795 NShNF=       24795 NShFF=           0 NBatch=         246 AvBLen=       100.8
 IPart=  9 NShTot=       25808 NShNF=       25808 NShFF=           0 NBatch=         196 AvBLen=       131.7
 CoulSu:  NxtVal=         898653.
 FoFCou: FMM=F IPFlag=           0 FMFlag=      100000 FMFlg1=         800
         NFxFlg=           0 DoJE=F BraDBF=F KetDBF=F FulRan=T
         wScrn=  0.000000 ICntrl=    2127 IOpCl=  1 I1Cent=           0 NGrid=           0
         NMat0=    1 NMatS0=      0 NMatT0=    1 NMatD0=    1 NMtDS0=    0 NMtDT0=    0
         CW=    0.222036    0.777964
         WU=    0.000000   12.500000
 Symmetry not used in FoFCou.
 FoFCou:  KetSym=F NOpSet=  1 NOpAb=1 NOp=  1.
 FoFCou:  CnvScl= 1.00D+00 Thresh= 1.00D-10 IAcrcy=      10.
 PrismS was handed   419297496 working-precision words and  1275 shell-pairs
 FoFCou: LinMIO=F DoNuc=F BraDBF=F KetDBF=F HaveP=T PDBF=F HaveZ=T HaveW=F
         NIJTC =      10 NIJTAt=       0 NIJTCD=       0 NIJTT =      10
         IJTBeg=       1 IJTEnd=      10 KLTBeg=       1 KLTEnd=      10
         IPTBeg=       1 IPTEnd=      10 IPTBCv=       1 IPTECv=      10
         IZTBeg=       1 IZTEnd=      10 IZTBCv=       1 IZTECv=      10
         IWTBeg=      11 IWTEnd=      10 IWTBCv=      11 IWTECv=      10
         INTBeg=       1 INTEnd=       0 IFTBCv=       1 IFTECv=      10
 NCel replicated for PrismC:     1
 CoulSu:  IncDef=  1024 NBBP=         813450 NTPThr=   100 NPartT=   32 Incr=         254 LDynOK=F.
 CoulSu:  NPrtUS=  32 ThrOK=T IAlg=1 NPAlg=1 LenDen=           0 LWGrdD=           0 DoCopy=F.
 Enter PrismC: JobTyp=21 DoJE=F Cont=F.
 Linear combination for Coulomb/exchange, wScrn=  0.000000
 Enter PrismC: JobTyp=21 DoJE=F Cont=F.
 Enter PrismC: JobTyp=21 DoJE=F Cont=F.
 Enter PrismC: JobTyp=21 DoJE=F Cont=F.
 CW=    0.222036    0.777964
 Enter PrismC: JobTyp=21 DoJE=F Cont=F.
 Linear combination for Coulomb/exchange, wScrn=  0.000000
 CW=    0.222036    0.777964
 WU=    0.000000   12.500000
 Enter PrismC: JobTyp=21 DoJE=F Cont=F.
 Linear combination for Coulomb/exchange, wScrn=  0.000000
 CW=    0.222036    0.777964
 WU=    0.000000   12.500000
 Enter PrismC: JobTyp=21 DoJE=F Cont=F.
 Linear combination for Coulomb/exchange, wScrn=  0.000000
 CW=    0.222036    0.777964
 WU=    0.000000   12.500000
 Enter PrismC: JobTyp=21 DoJE=F Cont=F.
 Linear combination for Coulomb/exchange, wScrn=  0.000000
 CW=    0.222036    0.777964
 WU=    0.000000   12.500000
 Enter PrismC: JobTyp=21 DoJE=F Cont=F.
 Linear combination for Coulomb/exchange, wScrn=  0.000000
 CW=    0.222036    0.777964
 WU=    0.000000   12.500000
 Linear combination for Coulomb/exchange, wScrn=  0.000000
 CW=    0.222036    0.777964
 WU=    0.000000   12.500000
 Enter PrismC: JobTyp=21 DoJE=F Cont=F.
 Linear combination for Coulomb/exchange, wScrn=  0.000000
 CW=    0.222036    0.777964
 WU=    0.000000   12.500000
 Enter PrismC: JobTyp=21 DoJE=F Cont=F.
 Linear combination for Coulomb/exchange, wScrn=  0.000000
 CW=    0.222036    0.777964
 WU=    0.000000   12.500000
 WU=    0.000000   12.500000
 Enter PrismC: JobTyp=21 DoJE=F Cont=F.
 Linear combination for Coulomb/exchange, wScrn=  0.000000
 CW=    0.222036    0.777964
 WU=    0.000000   12.500000
 PrismC was handed    13083030 working-precision words and  1275 shell-pairs
 Enter PrismC: JobTyp=21 DoJE=F Cont=F.
 Linear combination for Coulomb/exchange, wScrn=  0.000000
 CW=    0.222036    0.777964
 WU=    0.000000   12.500000
 Enter PrismC: JobTyp=21 DoJE=F Cont=F.
 Linear combination for Coulomb/exchange, wScrn=  0.000000
 CW=    0.222036    0.777964
 WU=    0.000000   12.500000
 Enter PrismC: JobTyp=21 DoJE=F Cont=F.
 Linear combination for Coulomb/exchange, wScrn=  0.000000
 CW=    0.222036    0.777964
 WU=    0.000000   12.500000
 Enter PrismC: JobTyp=21 DoJE=F Cont=F.
 Linear combination for Coulomb/exchange, wScrn=  0.000000
 CW=    0.222036    0.777964
 WU=    0.000000   12.500000
 PrismC was handed    13083030 working-precision words and  1275 shell-pairs
 PrismC was handed    13083030 working-precision words and  1275 shell-pairs
 Enter PrismC: JobTyp=21 DoJE=F Cont=F.
 Linear combination for Coulomb/exchange, wScrn=  0.000000
 CW=    0.222036    0.777964
 WU=    0.000000   12.500000
 PrismC was handed    13083030 working-precision words and  1275 shell-pairs
 Enter PrismC: JobTyp=21 DoJE=F Cont=F.
 Linear combination for Coulomb/exchange, wScrn=  0.000000
 CW=    0.222036    0.777964
 WU=    0.000000   12.500000
 Enter PrismC: JobTyp=21 DoJE=F Cont=F.
 Linear combination for Coulomb/exchange, wScrn=  0.000000
 CW=    0.222036    0.777964
 WU=    0.000000   12.500000
 PrismC was handed    13083030 working-precision words and  1275 shell-pairs
 Enter PrismC: JobTyp=21 DoJE=F Cont=F.
 Linear combination for Coulomb/exchange, wScrn=  0.000000
 CW=    0.222036    0.777964
 WU=    0.000000   12.500000
 Enter PrismC: JobTyp=21 DoJE=F Cont=F.
 Linear combination for Coulomb/exchange, wScrn=  0.000000
 CW=    0.222036    0.777964
 WU=    0.000000   12.500000
 PrismC was handed    13083030 working-precision words and  1275 shell-pairs
 PrismC was handed    13083030 working-precision words and  1275 shell-pairs
 Enter PrismC: JobTyp=21 DoJE=F Cont=F.
 Linear combination for Coulomb/exchange, wScrn=  0.000000
 CW=    0.222036    0.777964
 WU=    0.000000   12.500000
 Enter PrismC: JobTyp=21 DoJE=F Cont=F.
 Linear combination for Coulomb/exchange, wScrn=  0.000000
 CW=    0.222036    0.777964
 WU=    0.000000   12.500000
 PrismC was handed    13083030 working-precision words and  1275 shell-pairs
 Linear combination for Coulomb/exchange, wScrn=  0.000000
 CW=    0.222036    0.777964
 WU=    0.000000   12.500000
 PrismC:  IPart=     0 DynPar=T LinDyn=F Incr=         254 UseFst=F UseS4=T IGathr=2.
 PrismC was handed    13083030 working-precision words and  1275 shell-pairs
 Enter PrismC: JobTyp=21 DoJE=F Cont=F.
 Enter PrismC: JobTyp=21 DoJE=F Cont=F.
 Linear combination for Coulomb/exchange, wScrn=  0.000000
 CW=    0.222036    0.777964
 WU=    0.000000   12.500000
 PrismC was handed    13083030 working-precision words and  1275 shell-pairs
 PrismC was handed    13083030 working-precision words and  1275 shell-pairs
 Enter PrismC: JobTyp=21 DoJE=F Cont=F.
 Linear combination for Coulomb/exchange, wScrn=  0.000000
 CW=    0.222036    0.777964
 WU=    0.000000   12.500000
 PrismC was handed    13083030 working-precision words and  1275 shell-pairs
 Enter PrismC: JobTyp=21 DoJE=F Cont=F.
 Linear combination for Coulomb/exchange, wScrn=  0.000000
 CW=    0.222036    0.777964
 WU=    0.000000   12.500000
 Enter PrismC: JobTyp=21 DoJE=F Cont=F.
 Linear combination for Coulomb/exchange, wScrn=  0.000000
 CW=    0.222036    0.777964
 WU=    0.000000   12.500000
 Linear combination for Coulomb/exchange, wScrn=  0.000000
 CW=    0.222036    0.777964
 WU=    0.000000   12.500000
 PrismC was handed    13083030 working-precision words and  1275 shell-pairs
 Linear combination for Coulomb/exchange, wScrn=  0.000000
 CW=    0.222036    0.777964
 WU=    0.000000   12.500000
 PrismC was handed    13083030 working-precision words and  1275 shell-pairs
 PrismC was handed    13083030 working-precision words and  1275 shell-pairs
 PrismC was handed    13083030 working-precision words and  1275 shell-pairs
 PrismC was handed    13083030 working-precision words and  1275 shell-pairs
 Enter PrismC: JobTyp=21 DoJE=F Cont=F.
 PrismC was handed    13083030 working-precision words and  1275 shell-pairs
 PrismC was handed    13083030 working-precision words and  1275 shell-pairs
 PrismC was handed    13083030 working-precision words and  1275 shell-pairs
 PrismC was handed    13083030 working-precision words and  1275 shell-pairs
 Enter PrismC: JobTyp=21 DoJE=F Cont=F.
 Linear combination for Coulomb/exchange, wScrn=  0.000000
 CW=    0.222036    0.777964
 WU=    0.000000   12.500000
 PrismC was handed    13083030 working-precision words and  1275 shell-pairs
 PrismC was handed    13083030 working-precision words and  1275 shell-pairs
 PrismC was handed    13083030 working-precision words and  1275 shell-pairs
 PrismC was handed    13083030 working-precision words and  1275 shell-pairs
 Enter PrismC: JobTyp=21 DoJE=F Cont=F.
 Linear combination for Coulomb/exchange, wScrn=  0.000000
 CW=    0.222036    0.777964
 WU=    0.000000   12.500000
 PrismC was handed    13083030 working-precision words and  1275 shell-pairs
 PrismC was handed    13083030 working-precision words and  1275 shell-pairs
 PrismC was handed    13083030 working-precision words and  1275 shell-pairs
 PrismC was handed    13083030 working-precision words and  1275 shell-pairs
 Linear combination for Coulomb/exchange, wScrn=  0.000000
 CW=    0.222036    0.777964
 WU=    0.000000   12.500000
 Enter PrismC: JobTyp=21 DoJE=F Cont=F.
 Linear combination for Coulomb/exchange, wScrn=  0.000000
 CW=    0.222036    0.777964
 WU=    0.000000   12.500000
 PrismC was handed    13083030 working-precision words and  1275 shell-pairs
 PrismC was handed    13083030 working-precision words and  1275 shell-pairs
 PrismC was handed    13083030 working-precision words and  1275 shell-pairs
 IPart= 20 NShTot=       24936 NShNF=       24936 NShFF=           0 NBatch=         267 AvBLen=        93.4
 IPart= 30 NShTot=       22434 NShNF=       22434 NShFF=           0 NBatch=         252 AvBLen=        89.0
 IPart= 15 NShTot=       24523 NShNF=       24523 NShFF=           0 NBatch=         270 AvBLen=        90.8
 IPart= 26 NShTot=       24320 NShNF=       24320 NShFF=           0 NBatch=         311 AvBLen=        78.2
 IPart= 31 NShTot=       23694 NShNF=       23694 NShFF=           0 NBatch=         307 AvBLen=        77.2
 IPart= 14 NShTot=       26840 NShNF=       26840 NShFF=           0 NBatch=         233 AvBLen=       115.2
 IPart=  9 NShTot=       25073 NShNF=       25073 NShFF=           0 NBatch=         325 AvBLen=        77.1
 IPart= 16 NShTot=       24279 NShNF=       24279 NShFF=           0 NBatch=         326 AvBLen=        74.5
 IPart= 22 NShTot=       25505 NShNF=       25505 NShFF=           0 NBatch=         271 AvBLen=        94.1
 IPart= 29 NShTot=       23102 NShNF=       23102 NShFF=           0 NBatch=         268 AvBLen=        86.2
 IPart=  3 NShTot=       21910 NShNF=       21910 NShFF=           0 NBatch=         257 AvBLen=        85.3
 IPart=  4 NShTot=       19593 NShNF=       19593 NShFF=           0 NBatch=         292 AvBLen=        67.1
 IPart= 13 NShTot=       26751 NShNF=       26751 NShFF=           0 NBatch=         333 AvBLen=        80.3
 IPart=  5 NShTot=       26175 NShNF=       26175 NShFF=           0 NBatch=         268 AvBLen=        97.7
 IPart=  8 NShTot=       21808 NShNF=       21808 NShFF=           0 NBatch=         253 AvBLen=        86.2
 IPart=  1 NShTot=       24617 NShNF=       24617 NShFF=           0 NBatch=         315 AvBLen=        78.1
 IPart= 10 NShTot=       23896 NShNF=       23896 NShFF=           0 NBatch=         270 AvBLen=        88.5
 IPart= 28 NShTot=       26580 NShNF=       26580 NShFF=           0 NBatch=         319 AvBLen=        83.3
 IPart= 23 NShTot=       25993 NShNF=       25993 NShFF=           0 NBatch=         326 AvBLen=        79.7
 IPart=  2 NShTot=       24773 NShNF=       24773 NShFF=           0 NBatch=         194 AvBLen=       127.7
 IPart=  6 NShTot=       22223 NShNF=       22223 NShFF=           0 NBatch=         265 AvBLen=        83.9
 IPart= 25 NShTot=       24664 NShNF=       24664 NShFF=           0 NBatch=         262 AvBLen=        94.1
 IPart= 11 NShTot=       22480 NShNF=       22480 NShFF=           0 NBatch=         320 AvBLen=        70.3
 IPart=  0 NShTot=       26137 NShNF=       26137 NShFF=           0 NBatch=         323 AvBLen=        80.9
 IPart= 17 NShTot=       25904 NShNF=       25904 NShFF=           0 NBatch=         315 AvBLen=        82.2
 IPart= 27 NShTot=       21744 NShNF=       21744 NShFF=           0 NBatch=         316 AvBLen=        68.8
 IPart= 21 NShTot=       20206 NShNF=       20206 NShFF=           0 NBatch=         235 AvBLen=        86.0
 IPart= 18 NShTot=       22691 NShNF=       22691 NShFF=           0 NBatch=         317 AvBLen=        71.6
 IPart= 19 NShTot=       25325 NShNF=       25325 NShFF=           0 NBatch=         306 AvBLen=        82.8
 IPart= 24 NShTot=       24783 NShNF=       24783 NShFF=           0 NBatch=         343 AvBLen=        72.3
 IPart= 12 NShTot=       23328 NShNF=       23328 NShFF=           0 NBatch=         319 AvBLen=        73.1
 IPart=  7 NShTot=       26991 NShNF=       26991 NShFF=           0 NBatch=         337 AvBLen=        80.1
 CoulSu:  NxtVal=         898653.
 ReadGW:  IGet=0 IStart=           1 Next=           1 LGW=           0.
 Remaining memory in FofDFT      399.95 Mw
 CkSvGd:  ISavGI=        -1 IRadAn=       5 IRASav=       5 ISavGd=        -1.
 CalDSu:  NPrtUS=  32 ThrOK=T IAlg=1 NPAlg=2 DoDPD=T LenP=       12090 LenD1P=             0.
 IPart=  0 IRanGd=          0 ScrnBf=T ScrnGd=T RCrit=4.00D+00 DoMicB=T.
 IPart=  8         3482 of         3968 points in       5 batches and       29 microbatches, Max-NSigAt=       5 Max-NSgAt2=       5
 IPart=  9         3182 of         3568 points in       4 batches and       23 microbatches, Max-NSigAt=       5 Max-NSgAt2=       5
 IPart= 10         2792 of         2858 points in       3 batches and        7 microbatches, Max-NSigAt=       5 Max-NSgAt2=       5
 IPart=  0         3299 of         3592 points in       4 batches and        8 microbatches, Max-NSigAt=       5 Max-NSgAt2=       5
 IPart= 23         2820 of         2820 points in       2 batches and        6 microbatches, Max-NSigAt=       5 Max-NSgAt2=       5
 IPart= 27         2714 of         2992 points in       3 batches and       25 microbatches, Max-NSigAt=       5 Max-NSgAt2=       5
 IPart= 26         2637 of         2642 points in       2 batches and        7 microbatches, Max-NSigAt=       5 Max-NSgAt2=       5
 IPart= 28         3704 of         4172 points in       5 batches and        9 microbatches, Max-NSigAt=       5 Max-NSgAt2=       5
 IPart= 12         2681 of         2964 points in       3 batches and       27 microbatches, Max-NSigAt=       5 Max-NSgAt2=       5
 IPart= 22         2699 of         2732 points in       2 batches and        9 microbatches, Max-NSigAt=       5 Max-NSgAt2=       5
 IPart= 17         3132 of         3568 points in       4 batches and       27 microbatches, Max-NSigAt=       5 Max-NSgAt2=       5
 IPart= 16         3082 of         3322 points in       3 batches and       39 microbatches, Max-NSigAt=       5 Max-NSgAt2=       5
 IPart= 18         2947 of         3034 points in       3 batches and        8 microbatches, Max-NSigAt=       5 Max-NSgAt2=       5
 IPart=  2         3324 of         3596 points in       4 batches and       31 microbatches, Max-NSigAt=       5 Max-NSgAt2=       5
 IPart= 20         3086 of         3160 points in       3 batches and       25 microbatches, Max-NSigAt=       5 Max-NSgAt2=       5
 IPart=  4         3436 of         3864 points in       5 batches and       43 microbatches, Max-NSigAt=       5 Max-NSgAt2=       5
 IPart= 31         3264 of         3568 points in       4 batches and       40 microbatches, Max-NSigAt=       5 Max-NSgAt2=       5
 IPart= 24         3657 of         4200 points in       6 batches and       62 microbatches, Max-NSigAt=       5 Max-NSgAt2=       5
 IPart= 13         3548 of         3568 points in       3 batches and        9 microbatches, Max-NSigAt=       5 Max-NSgAt2=       5
 IPart= 11         4430 of         4972 points in       6 batches and       29 microbatches, Max-NSigAt=       5 Max-NSgAt2=       5
 IPart= 19         3869 of         4172 points in       4 batches and       11 microbatches, Max-NSigAt=       5 Max-NSgAt2=       5
 IPart=  5         3532 of         3568 points in       3 batches and       11 microbatches, Max-NSigAt=       5 Max-NSgAt2=       5
 IPart=  6         3997 of         4396 points in       6 batches and       33 microbatches, Max-NSigAt=       5 Max-NSgAt2=       5
 IPart=  3         3712 of         3822 points in       3 batches and       12 microbatches, Max-NSigAt=       5 Max-NSgAt2=       5
 IPart= 21         3524 of         3524 points in       3 batches and        9 microbatches, Max-NSigAt=       5 Max-NSgAt2=       5
 IPart= 30         3419 of         3596 points in       4 batches and       24 microbatches, Max-NSigAt=       5 Max-NSgAt2=       5
 IPart=  1         4165 of         4544 points in       5 batches and       27 microbatches, Max-NSigAt=       5 Max-NSgAt2=       5
 IPart= 15         3980 of         4144 points in       4 batches and       10 microbatches, Max-NSigAt=       5 Max-NSgAt2=       5
 IPart= 29         3560 of         3564 points in       3 batches and       12 microbatches, Max-NSigAt=       5 Max-NSgAt2=       5
 IPart= 25         3471 of         3540 points in       3 batches and       13 microbatches, Max-NSigAt=       5 Max-NSgAt2=       5
 IPart=  7         3928 of         4172 points in       4 batches and       26 microbatches, Max-NSigAt=       5 Max-NSgAt2=       5
 IPart= 14         3340 of         3568 points in       4 batches and       27 microbatches, Max-NSigAt=       5 Max-NSgAt2=       5
 Forces at end of L703
 I=    0 X=   7.018888223139D-02 Y=   2.361318219691D-01 Z=   4.291845073354D-02
 I=    1 X=  -1.343708071945D-03 Y=  -4.507430738002D-03 Z=  -8.236938233162D-04
 I=    2 X=   1.234430644688D-03 Y=   4.129156002678D-03 Z=  -1.169480585420D-03
 I=    3 X=  -4.834058169969D-04 Y=   4.136104512145D-03 Z=   1.632021158917D-03
 I=    4 X=   2.660792487236D-03 Y=   3.199376260310D-03 Z=   1.625168005714D-03
 I=    5 X=  -2.068109242981D-03 Y=  -6.957206037128D-03 Z=  -1.264014755897D-03
 FrcOut:
 IF    =    36 IFX   =    51 IFXYZ =    66
 IFFX  =    81 IFFFX =   201 IFLen =    15
 IFFLen=   120 IFFFLn=     0 IEDerv=   201
 LEDerv=   773 IFroze=  1163 ICStrt= 39591
 FCEst1:  Generated internal coordinate force constants:
                1             2             3             4             5 
      1  0.657797D+00
      2 -0.121373D+00  0.285593D+00
      3 -0.220382D-01 -0.742136D-01  0.680406D+00
      4 -0.100018D+00  0.107431D-01 -0.207222D-02  0.691132D-01
      5  0.107432D-01 -0.670940D-01 -0.695821D-02 -0.584653D-02  0.511988D-01
      6  0.000000D+00  0.000000D+00 -0.361033D+00  0.000000D+00  0.000000D+00
      7 -0.307653D+00  0.489462D-02  0.106318D+00  0.177367D-01  0.570866D-03
      8 -0.129881D-02 -0.670889D-01  0.127303D-01  0.125254D-02  0.436194D-02
      9  0.104248D+00  0.955903D-02 -0.153397D+00  0.346392D-01  0.111488D-02
     10 -0.237489D+00  0.106238D+00 -0.821146D-01  0.129143D-01 -0.614886D-02
     11  0.112433D+00 -0.137226D+00  0.687495D-01 -0.683042D-02  0.918905D-02
     12 -0.821171D-01  0.649629D-01 -0.153432D+00 -0.284031D-01  0.198552D-01
     13 -0.126361D-01 -0.502751D-03 -0.928508D-04  0.253832D-03  0.681365D-03
     14 -0.504341D-03 -0.141849D-01 -0.308073D-03  0.681353D-03  0.234418D-02
     15 -0.932346D-04 -0.308392D-03 -0.125435D-01 -0.416386D-02 -0.140118D-01
                6             7             8             9            10 
      6  0.361033D+00
      7  0.000000D+00  0.300395D+00
      8  0.000000D+00 -0.266374D-02  0.511966D-01
      9  0.000000D+00 -0.118424D+00 -0.520220D-02  0.129754D+00
     10  0.000000D+00 -0.884124D-02  0.148715D-01 -0.172667D-01  0.228444D+00
     11  0.000000D+00 -0.311219D-02  0.918732D-02 -0.607801D-02 -0.112936D+00
     12  0.000000D+00  0.111386D-01 -0.145206D-01  0.217534D-01  0.963720D-01
     13  0.000000D+00 -0.163674D-02 -0.121615D-01 -0.319651D-02  0.497226D-02
     14  0.000000D+00  0.310446D-03  0.234309D-02  0.606292D-03 -0.202451D-02
     15  0.000000D+00  0.968012D-03  0.699243D-02  0.189050D-02  0.300924D-02
               11            12            13            14            15 
     11  0.123114D+00
     12 -0.690594D-01  0.129787D+00
     13  0.104458D-01  0.300952D-02  0.904678D-02
     14 -0.426513D-02 -0.123815D-02  0.153705D-02  0.137627D-01
     15  0.638787D-02  0.189176D-02  0.279844D-03  0.939931D-03  0.876121D-02
 Quadrupole    = 3.70209910D-01-8.12237384D-01 4.42027474D-01
                -3.85492713D-01-6.99664404D-02-2.35779564D-01
 -------------------------------------------------------------------
 Center     Atomic                   Forces (Hartrees/Bohr)
 Number     Number              X              Y              Z
 -------------------------------------------------------------------
      1        6           0.001343708    0.004507431    0.000823694
      2        1          -0.001234431   -0.004129156    0.001169481
      3        1           0.000483406   -0.004136105   -0.001632021
      4        1          -0.002660792   -0.003199376   -0.001625168
      5        1           0.002068109    0.006957206    0.001264015
 -------------------------------------------------------------------
 Cartesian Forces:  Max     0.006957206 RMS     0.003021936
 From PutF, contents of force:
   1    0.1169480585D-02
   2    0.1174100582D-02
   3    0.1168959683D-02
   4    0.2512992165D-02
   5    0.2502509557D-02
   6   -0.7501876468D-02
   7   -0.3357743381D-05
   8    0.2563245793D-05
   9   -0.7367328168D-02
 -----------------------------------------------------------------------------------------------
                       Internal Coordinate Forces (Hartree/Bohr or radian)
  Cent   Atom   N1       Length/X         N2         Alpha/Y        N3         Beta/Z          J
 -----------------------------------------------------------------------------------------------
      1  C 
      2  H        1   0.001169(     1)
      3  H        1   0.001174(     2)      2   0.002513(     5)
      4  H        1   0.001169(     3)      2   0.002503(     6)      3  -0.007502(     8)     0
      5  H        1  -0.007367(     4)      2   0.000003(     7)      3  -0.000003(     9)     0
 -----------------------------------------------------------------------------------------------
 Internal  Forces:  Max     0.007501876 RMS     0.003760113
 Force constants in Cartesian coordinates: 
                1             2             3             4             5 
      1  0.657797D+00
      2 -0.121373D+00  0.285593D+00
      3 -0.220382D-01 -0.742136D-01  0.680406D+00
      4 -0.100018D+00  0.107431D-01 -0.207222D-02  0.691132D-01
      5  0.107432D-01 -0.670940D-01 -0.695821D-02 -0.584653D-02  0.511988D-01
      6  0.000000D+00  0.000000D+00 -0.361033D+00  0.000000D+00  0.000000D+00
      7 -0.307653D+00  0.489462D-02  0.106318D+00  0.177367D-01  0.570866D-03
      8 -0.129881D-02 -0.670889D-01  0.127303D-01  0.125254D-02  0.436194D-02
      9  0.104248D+00  0.955903D-02 -0.153397D+00  0.346392D-01  0.111488D-02
     10 -0.237489D+00  0.106238D+00 -0.821146D-01  0.129143D-01 -0.614886D-02
     11  0.112433D+00 -0.137226D+00  0.687495D-01 -0.683042D-02  0.918905D-02
     12 -0.821171D-01  0.649629D-01 -0.153432D+00 -0.284031D-01  0.198552D-01
     13 -0.126361D-01 -0.502751D-03 -0.928508D-04  0.253832D-03  0.681365D-03
     14 -0.504341D-03 -0.141849D-01 -0.308073D-03  0.681353D-03  0.234418D-02
     15 -0.932346D-04 -0.308392D-03 -0.125435D-01 -0.416386D-02 -0.140118D-01
                6             7             8             9            10 
      6  0.361033D+00
      7  0.000000D+00  0.300395D+00
      8  0.000000D+00 -0.266374D-02  0.511966D-01
      9  0.000000D+00 -0.118424D+00 -0.520220D-02  0.129754D+00
     10  0.000000D+00 -0.884124D-02  0.148715D-01 -0.172667D-01  0.228444D+00
     11  0.000000D+00 -0.311219D-02  0.918732D-02 -0.607801D-02 -0.112936D+00
     12  0.000000D+00  0.111386D-01 -0.145206D-01  0.217534D-01  0.963720D-01
     13  0.000000D+00 -0.163674D-02 -0.121615D-01 -0.319651D-02  0.497226D-02
     14  0.000000D+00  0.310446D-03  0.234309D-02  0.606292D-03 -0.202451D-02
     15  0.000000D+00  0.968012D-03  0.699243D-02  0.189050D-02  0.300924D-02
               11            12            13            14            15 
     11  0.123114D+00
     12 -0.690594D-01  0.129787D+00
     13  0.104458D-01  0.300952D-02  0.904678D-02
     14 -0.426513D-02 -0.123815D-02  0.153705D-02  0.137627D-01
     15  0.638787D-02  0.189176D-02  0.279844D-03  0.939931D-03  0.876121D-02
 FCInt: Cartesian first derivatives: 
                 1             2             3             4             5 
      1   0.000000D+00  0.000000D+00  0.000000D+00  0.000000D+00  0.000000D+00
      2   0.000000D+00  0.000000D+00  0.000000D+00  0.000000D+00  0.000000D+00
      3   0.000000D+00  0.000000D+00  0.000000D+00  0.000000D+00  0.000000D+00
 FCInt: Cartesian force constants: 
                1             2             3             4             5 
      1  0.657797D+00
      2 -0.121373D+00  0.285593D+00
      3 -0.220382D-01 -0.742136D-01  0.680406D+00
      4 -0.100018D+00  0.107431D-01 -0.207222D-02  0.691132D-01
      5  0.107432D-01 -0.670940D-01 -0.695821D-02 -0.584653D-02  0.511988D-01
      6  0.000000D+00  0.000000D+00 -0.361033D+00  0.000000D+00  0.000000D+00
      7 -0.307653D+00  0.489462D-02  0.106318D+00  0.177367D-01  0.570866D-03
      8 -0.129881D-02 -0.670889D-01  0.127303D-01  0.125254D-02  0.436194D-02
      9  0.104248D+00  0.955903D-02 -0.153397D+00  0.346392D-01  0.111488D-02
     10 -0.237489D+00  0.106238D+00 -0.821146D-01  0.129143D-01 -0.614886D-02
     11  0.112433D+00 -0.137226D+00  0.687495D-01 -0.683042D-02  0.918905D-02
     12 -0.821171D-01  0.649629D-01 -0.153432D+00 -0.284031D-01  0.198552D-01
     13 -0.126361D-01 -0.502751D-03 -0.928508D-04  0.253832D-03  0.681365D-03
     14 -0.504341D-03 -0.141849D-01 -0.308073D-03  0.681353D-03  0.234418D-02
     15 -0.932346D-04 -0.308392D-03 -0.125435D-01 -0.416386D-02 -0.140118D-01
                6             7             8             9            10 
      6  0.361033D+00
      7  0.000000D+00  0.300395D+00
      8  0.000000D+00 -0.266374D-02  0.511966D-01
      9  0.000000D+00 -0.118424D+00 -0.520220D-02  0.129754D+00
     10  0.000000D+00 -0.884124D-02  0.148715D-01 -0.172667D-01  0.228444D+00
     11  0.000000D+00 -0.311219D-02  0.918732D-02 -0.607801D-02 -0.112936D+00
     12  0.000000D+00  0.111386D-01 -0.145206D-01  0.217534D-01  0.963720D-01
     13  0.000000D+00 -0.163674D-02 -0.121615D-01 -0.319651D-02  0.497226D-02
     14  0.000000D+00  0.310446D-03  0.234309D-02  0.606292D-03 -0.202451D-02
     15  0.000000D+00  0.968012D-03  0.699243D-02  0.189050D-02  0.300924D-02
               11            12            13            14            15 
     11  0.123114D+00
     12 -0.690594D-01  0.129787D+00
     13  0.104458D-01  0.300952D-02  0.904678D-02
     14 -0.426513D-02 -0.123815D-02  0.153705D-02  0.137627D-01
     15  0.638787D-02  0.189176D-02  0.279844D-03  0.939931D-03  0.876121D-02
 Internal force constants: 
                1             2             3             4             5 
      1  0.361033D+00
      2  0.000000D+00  0.361033D+00
      3  0.000000D+00  0.000000D+00  0.361033D+00
      4  0.000000D+00  0.000000D+00  0.000000D+00  0.143903D-01
      5  0.000000D+00  0.000000D+00  0.000000D+00  0.000000D+00  0.287406D+00
      6  0.000000D+00  0.000000D+00  0.000000D+00  0.000000D+00  0.114183D+00
      7  0.000000D+00  0.000000D+00  0.000000D+00  0.000000D+00  0.232621D-01
      8  0.000000D+00  0.000000D+00  0.000000D+00  0.000000D+00  0.603889D-01
      9  0.000000D+00  0.000000D+00  0.000000D+00  0.000000D+00 -0.386545D-01
                6             7             8             9 
      6  0.287411D+00
      7  0.232793D-01  0.240505D+00
      8  0.216185D-01 -0.681818D-01  0.168643D+00
      9  0.386660D-01  0.142190D-04 -0.116590D+00  0.233412D+00
 Frcnst in PutFF: 
                1             2             3             4             5 
      1  0.361033D+00
      2  0.000000D+00  0.361033D+00
      3  0.000000D+00  0.000000D+00  0.361033D+00
      4  0.000000D+00  0.000000D+00  0.000000D+00  0.287406D+00
      5  0.000000D+00  0.000000D+00  0.000000D+00  0.114183D+00  0.287411D+00
      6  0.000000D+00  0.000000D+00  0.000000D+00  0.603889D-01  0.216185D-01
      7  0.000000D+00  0.000000D+00  0.000000D+00 -0.386545D-01  0.386660D-01
      8  0.000000D+00  0.000000D+00  0.000000D+00  0.232621D-01  0.232793D-01
      9  0.000000D+00  0.000000D+00  0.000000D+00  0.000000D+00  0.000000D+00
                6             7             8             9 
      6  0.168643D+00
      7 -0.116590D+00  0.233412D+00
      8 -0.681818D-01  0.142190D-04  0.240505D+00
      9  0.000000D+00  0.000000D+00  0.000000D+00  0.143903D-01
 Force constants in internal coordinates: 
                1             2             3             4             5 
      1  0.361033D+00
      2  0.000000D+00  0.361033D+00
      3  0.000000D+00  0.000000D+00  0.361033D+00
      4  0.000000D+00  0.000000D+00  0.000000D+00  0.143903D-01
      5  0.000000D+00  0.000000D+00  0.000000D+00  0.000000D+00  0.287406D+00
      6  0.000000D+00  0.000000D+00  0.000000D+00  0.000000D+00  0.114183D+00
      7  0.000000D+00  0.000000D+00  0.000000D+00  0.000000D+00  0.232621D-01
      8  0.000000D+00  0.000000D+00  0.000000D+00  0.000000D+00  0.603889D-01
      9  0.000000D+00  0.000000D+00  0.000000D+00  0.000000D+00 -0.386545D-01
                6             7             8             9 
      6  0.287411D+00
      7  0.232793D-01  0.240505D+00
      8  0.216185D-01 -0.681818D-01  0.168643D+00
      9  0.386660D-01  0.142190D-04 -0.116590D+00  0.233412D+00
 Final forces over variables, Energy=-4.03435771D+01:
  1.16948059D-03 1.17410058D-03 1.16895968D-03 2.51299217D-03
  2.50250956D-03-7.50187647D-03-3.35774338D-06 2.56324579D-06
 -7.36732817D-03

 GradGradGradGradGradGradGradGradGradGradGradGradGradGradGradGradGradGrad
 Berny optimization.
 Search for a local minimum.
 Step number   1 out of a maximum of   50
 All quantities printed in internal units (Hartrees-Bohrs-Radians)
 Second derivative matrix not updated -- first step.
 The second derivative matrix:
                          R1        R2        R3        A2        A3
           R1           0.36103
           R2           0.00000   0.36103
           R3           0.00000  -0.00000   0.36103
           A2           0.00000   0.00000   0.00000   0.28741
           A3           0.00000  -0.00000  -0.00000   0.11418   0.28741
           D3           0.00000  -0.00000   0.00000   0.06039   0.02162
           DH1          0.00000   0.00000  -0.00000  -0.03865   0.03867
           ANG1         0.00000  -0.00000  -0.00000   0.02326   0.02328
           BB           0.00000  -0.00000   0.00000   0.00000   0.00000
                          D3        DH1      ANG1       BB
           D3           0.16864
           DH1         -0.11659   0.23341
           ANG1        -0.06818   0.00001   0.24051
           BB          -0.00000   0.00000   0.00000   0.01439
 ITU=  0
     Eigenvalues ---    0.05338   0.14843   0.24330   0.34986   0.36103
     Eigenvalues ---    0.36103   0.36103   0.422401000.00000
 RFO step:  Lambda=-8.55056963D-04 EMin= 5.33803282D-02
 Linear search not attempted -- first point.
 Variable       Old X    -DE/DX   Delta X   Delta X   Delta X     New X
                                 (Linear)    (Quad)   (Total)
    R1        2.03920   0.00117   0.00000   0.00323   0.00323   2.04244
    R2        2.03920   0.00117   0.00000   0.00324   0.00324   2.04245
    R3        2.03920   0.00117   0.00000   0.00323   0.00323   2.04243
    A2        2.04403   0.00251   0.00000   0.01840   0.01840   2.06243
    A3        2.04417   0.00250   0.00000   0.01817   0.01817   2.06233
    D3        3.71950  -0.00750   0.00000  -0.10023  -0.10023   3.61928
   DH1        1.85965  -0.00000   0.00000  -0.04986  -0.04986   1.80979
   ANG1       1.74329   0.00000   0.00000  -0.03183  -0.03183   1.71146
    BB        5.29123  -0.00737   0.00000   0.00000   0.00000   5.29123
         Item               Value     Threshold  Converged?
 Maximum Force            0.007502     0.000450     NO 
 RMS     Force            0.003020     0.000300     NO 
 Maximum Displacement     0.100228     0.001800     NO 
 RMS     Displacement     0.039783     0.001200     NO 
 Predicted change in Energy=-4.336170D-04
 GradGradGradGradGradGradGradGradGradGradGradGradGradGradGradGradGradGrad

 ---------------------------------------------------------------------------------------------------
                            Z-MATRIX (ANGSTROMS AND DEGREES)
   CD    Cent   Atom    N1       Length/X        N2       Alpha/Y        N3        Beta/Z          J
 ---------------------------------------------------------------------------------------------------
      1      1  C 
      2      2  H        1   1.080810(     1)
      3      3  H        1   1.080817(     2)      2  118.169(     5)
      4      4  H        1   1.080809(     3)      2  118.163(     6)      3  207.369(     8)      0
      5      5  H        1   2.800000(     4)      2   98.059(     7)      3  103.694(     9)      0
 ---------------------------------------------------------------------------------------------------
                         Z-Matrix orientation:                         
 ---------------------------------------------------------------------
 Center     Atomic      Atomic             Coordinates (Angstroms)
 Number     Number       Type             X           Y           Z
 ---------------------------------------------------------------------
      1          6           0        0.000000    0.000000    0.000000
      2          1           0        0.000000    0.000000    1.080810
      3          1           0        0.952807    0.000000   -0.510220
      4          1           0       -0.846191    0.438048   -0.510121
      5          1           0       -0.656295   -2.693543   -0.392561
 ---------------------------------------------------------------------
                    Distance matrix (angstroms):
                    1          2          3          4          5
     1  C    0.000000
     2  H    1.080810   0.000000
     3  H    1.080817   1.854512   0.000000
     4  H    1.080809   1.854451   1.851561   0.000000
     5  H    2.800000   3.139541   3.139781   3.139545   0.000000
 Symmetry turned off by external request.
 Stoichiometry    CH4
 Framework group  C1[X(CH4)]
 Deg. of freedom     9
 Full point group                 C1      NOp   1
 Rotational constants (GHZ):    145.9628863     54.0514735     54.0094473
 Standard basis: Aug-CC-pVTZ (5D, 7F)
   138 basis functions,   180 primitive gaussians,   155 cartesian basis functions
     5 alpha electrons        5 beta electrons
       nuclear repulsion energy        11.3090901046 Hartrees.
 NAtoms=    5 NActive=    5 NUniq=    5 SFac= 1.00D+00 NAtFMM=   60 NAOKFM=F Big=F
 Integral buffers will be    131072 words long.
 Raffenetti 2 integral format.
 Two-electron integral symmetry is turned off.
 Nuclear repulsion after empirical dispersion term =       11.3085039880 Hartrees.
 One-electron integrals computed using PRISM.
 NBasis=   138 RedAO= T EigKep=  1.07D-04  NBF=   138
 NBsUse=   138 1.00D-06 EigRej= -1.00D+00 NBFU=   138
 ExpMin= 2.53D-02 ExpMax= 8.24D+03 ExpMxC= 2.81D+02 IAcc=3 IRadAn=         5 AccDes= 0.00D+00
 Harris functional with IExCor= 4639 and IRadAn=       5 diagonalized for initial guess.
 HarFok:  IExCor= 4639 AccDes= 0.00D+00 IRadAn=         5 IDoV= 1 UseB2=F ITyADJ=14
 ICtDFT=  3500011 ScaDFX=  1.000000  1.000000  1.000000  1.000000
 FoFCou: FMM=F IPFlag=           0 FMFlag=      100000 FMFlg1=           0
         NFxFlg=           0 DoJE=T BraDBF=F KetDBF=T FulRan=T
         wScrn=  0.000000 ICntrl=     500 IOpCl=  0 I1Cent=   200000004 NGrid=           0
         NMat0=    1 NMatS0=      1 NMatT0=    0 NMatD0=    1 NMtDS0=    0 NMtDT0=    0
 Symmetry not used in FoFCou.
 Mixing orbitals, IMix= 1 IMixAn=  0 NRI=1 NE=    5 Coef=  7.07106781D-01  7.07106781D-01
 Mixing orbitals, IMix= 1 IMixAn=  0 NRI=1 NE=    5 Coef= -7.07106781D-01  7.07106781D-01
 Initial guess <Sx>= 0.0000 <Sy>= 0.0000 <Sz>= 0.0000 <S**2>= 1.0000 S= 0.6180
 Keep R1 and R2 ints in memory in canonical form, NReq=186089253.
 Requested convergence on RMS density matrix=1.00D-08 within 128 cycles.
 Requested convergence on MAX density matrix=1.00D-06.
 Requested convergence on             energy=1.00D-06.
 No special actions if energy rises.
 SCF Done:  E(UwB97XD) =  -40.3442798289     A.U. after   14 cycles
            NFock= 14  Conv=0.41D-08     -V/T= 2.0080
 <Sx>= 0.0000 <Sy>= 0.0000 <Sz>= 0.0000 <S**2>= 0.8994 S= 0.5721
 <L.S>=  0.00000000000    
 Annihilation of the first spin contaminant:
 S**2 before annihilation     0.8994,   after     0.0218
 DipInt: DoE/N= T T RetVal/Mat= T F Init=T NMatP=  1 IDeriv=0 Min/MaxMlt=  1  1
 Entering OneElI...
 Multipole integrals L=1 to 1 MinM= 0 MaxM= 0.
 Requested accuracy = 0.1000D-12
 PrsmSu:  NPrtUS=   1 ThrOK=F IAlg=1 NPAlg=1 LenDen=           0.
 Prism:   IPart=     0 DynPar=F LinDyn=F Incr=          12.
 PRISM was handed   419323780 working-precision words and  1275 shell-pairs
 IPart=  0 NShTot=        1275 NBatch=          39 AvBLen=        32.7
 PrSmSu:  NxtVal=             13.
 Entering OneElI...
 Calculate overlap and kinetic energy integrals
    NBasis = 155  MinDer = 1  MaxDer = 1
 Requested accuracy = 0.1000D-12
 PrsmSu:  NPrtUS=  32 ThrOK=T IAlg=1 NPAlg=1 LenDen=           0.
 Prism:   IPart=     0 DynPar=F LinDyn=F Incr=           1.
 PRISM was handed    13082643 working-precision words and  1275 shell-pairs
 PRISM was handed    13082643 working-precision words and  1275 shell-pairs
 PRISM was handed    13082643 working-precision words and  1275 shell-pairs
 PRISM was handed    13082643 working-precision words and  1275 shell-pairs
 PRISM was handed    13082643 working-precision words and  1275 shell-pairs
 PRISM was handed    13082643 working-precision words and  1275 shell-pairs
 PRISM was handed    13082643 working-precision words and  1275 shell-pairs
 PRISM was handed    13082643 working-precision words and  1275 shell-pairs
 PRISM was handed    13082643 working-precision words and  1275 shell-pairs
 PRISM was handed    13082643 working-precision words and  1275 shell-pairs
 PRISM was handed    13082643 working-precision words and  1275 shell-pairs
 PRISM was handed    13082643 working-precision words and  1275 shell-pairs
[...]
     2  H    0.016881  -0.028566   0.000908   0.000908   0.004257
     3  H    0.016894   0.000908  -0.028533   0.000911   0.004288
     4  H    0.016933   0.000908   0.000911  -0.028513   0.004221
     5  H   -0.005198   0.004257   0.004288   0.004221  -0.956076
 Mulliken charges and spin densities:
               1          2
     1  C   -1.091777   0.965190
     2  H    0.367684  -0.005610
     3  H    0.367791  -0.005532
     4  H    0.367535  -0.005539
     5  H   -0.011233  -0.948508
 Sum of Mulliken charges =  -0.00000   0.00000
 Mulliken charges and spin densities with hydrogens summed into heavy atoms:
               1          2
     1  C   -0.000000   0.000000
 APT charges:
               1
     1  C   -0.207992
     2  H    0.049727
     3  H    0.049406
     4  H    0.049001
     5  H    0.059858
 Sum of APT charges =  -0.00000
 APT charges with hydrogens summed into heavy atoms:
               1
     1  C   -0.000000
 Electronic spatial extent (au):  <R**2>=             61.4843
 Charge=              0.0000 electrons
 Dipole moment (field-independent basis, Debye):
    X=              0.0265    Y=              0.4109    Z=              0.0151  Tot=              0.4120
 Quadrupole moment (field-independent basis, Debye-Ang):
   XX=             -8.6480   YY=            -10.9991   ZZ=             -8.6389
   XY=             -0.1554   XZ=             -0.0061   YZ=             -0.0899
 Traceless Quadrupole moment (field-independent basis, Debye-Ang):
   XX=              0.7807   YY=             -1.5704   ZZ=              0.7898
   XY=             -0.1554   XZ=             -0.0061   YZ=             -0.0899
 Octapole moment (field-independent basis, Debye-Ang**2):
  XXX=              0.8188  YYY=             13.3653  ZZZ=              1.4098  XYY=              0.3039
  XXY=              4.2915  XXZ=             -0.7877  XZZ=              0.2684  YZZ=              4.2182
  YYZ=              0.1741  XYZ=              0.0640
 Hexadecapole moment (field-independent basis, Debye-Ang**3):
 XXXX=            -17.1990 YYYY=            -84.7101 ZZZZ=            -16.9998 XXXY=             -2.2086
 XXXZ=             -0.0906 YYYX=             -2.0928 YYYZ=             -1.1916 ZZZX=             -0.0767
 ZZZY=             -1.2070 XXYY=            -17.2635 XXZZ=             -5.7043 YYZZ=            -17.2454
 XXYZ=             -0.4720 YYXZ=             -0.0150 ZZXY=             -0.7365
 N-N= 1.133965894622D+01 E-N=-1.154998519956D+02  KE= 4.003022942569D+01
  Exact polarizability:  20.916   1.122  38.526   0.042   0.627  20.864
 Approx polarizability:  18.232   0.382  24.256   0.014   0.217  18.216
                          Isotropic Fermi Contact Couplings
        Atom                 a.u.       MegaHertz       Gauss      10(-4) cm-1
     1  C(13)              0.01226       6.89204       2.45925       2.29894
     2  H(1)              -0.01342     -29.99767     -10.70391     -10.00614
     3  H(1)              -0.01342     -29.99882     -10.70433     -10.00653
     4  H(1)              -0.01341     -29.97046     -10.69421      -9.99707
     5  H(1)              -0.28101    -628.04447    -224.10188    -209.49308
 --------------------------------------------------------
       Center         ----  Spin Dipole Couplings  ----
                      3XX-RR        3YY-RR        3ZZ-RR
 --------------------------------------------------------
     1   Atom       -0.522795      1.050250     -0.527455
     2   Atom       -0.068197     -0.005184      0.073381
     3   Atom        0.037958     -0.005180     -0.032778
     4   Atom        0.037793     -0.004974     -0.032820
     5   Atom       -0.009108      0.018290     -0.009182
 --------------------------------------------------------
                        XY            XZ            YZ
 --------------------------------------------------------
     1   Atom        0.104756      0.004032      0.060655
     2   Atom        0.004225     -0.000321     -0.005079
     3   Atom       -0.002297     -0.061307      0.006198
     4   Atom       -0.003384      0.061574     -0.001958
     5   Atom        0.001735      0.000063      0.000988
 --------------------------------------------------------


 ---------------------------------------------------------------------------------
              Anisotropic Spin Dipole Couplings in Principal Axis System
 ---------------------------------------------------------------------------------

       Atom             a.u.   MegaHertz   Gauss  10(-4) cm-1        Axes

              Baa    -0.5298   -71.092   -25.367   -23.714 -0.2275 -0.0223  0.9735
     1 C(13)  Bbb    -0.5297   -71.086   -25.365   -23.712  0.9715 -0.0731  0.2254
              Bcc     1.0595   142.178    50.733    47.425  0.0661  0.9971  0.0383
 
              Baa    -0.0685   -36.537   -13.037   -12.188  0.9978 -0.0666 -0.0001
     2 H(1)   Bbb    -0.0052    -2.791    -0.996    -0.931  0.0665  0.9957  0.0646
              Bcc     0.0737    39.329    14.033    13.119 -0.0042 -0.0645  0.9979
 
              Baa    -0.0685   -36.532   -13.036   -12.186  0.4970 -0.0667  0.8652
     3 H(1)   Bbb    -0.0052    -2.789    -0.995    -0.930  0.0892  0.9957  0.0255
              Bcc     0.0737    39.321    14.031    13.116  0.8632 -0.0645 -0.5008
 
              Baa    -0.0685   -36.544   -13.040   -12.190 -0.5013 -0.0000  0.8653
     4 H(1)   Bbb    -0.0052    -2.757    -0.984    -0.920  0.0429  0.9988  0.0249
              Bcc     0.0737    39.301    14.024    13.109  0.8642 -0.0497  0.5007
 
              Baa    -0.0092    -4.918    -1.755    -1.641 -0.5118  0.0014  0.8591
     5 H(1)   Bbb    -0.0092    -4.918    -1.755    -1.640  0.8568 -0.0724  0.5105
              Bcc     0.0184     9.836     3.510     3.281  0.0629  0.9974  0.0358
 

 ---------------------------------------------------------------------------------

 Calling FoFJK, ICntrl=    100127 FMM=F ISym2X=0 I1Cent= 0 IOpClX= 1 NMat=1 NMatS=1 NMatT=0.
 Full mass-weighted force constant matrix:
 Low frequencies --- -586.1626    0.0009    0.0009    0.0014   20.9641  161.4348
 Low frequencies ---  169.1045  280.7939  288.1414
 ******    1 imaginary frequencies (negative Signs) ****** 
 Diagonal vibrational polarizability:
        0.1500914      10.5263399       0.1201123
 Harmonic frequencies (cm**-1), IR intensities (KM/Mole), Raman scattering
 activities (A**4/AMU), depolarization ratios for plane and unpolarized
 incident light, reduced masses (AMU), force constants (mDyne/A),
 and normal coordinates:
                      1                      2                      3
                      A                      A                      A
 Frequencies --   -586.1622               274.0839               284.2147
 Red. masses --      1.0908                 1.0209                 1.0209
 Frc consts  --      0.2208                 0.0452                 0.0486
 IR Inten    --   69.41                 0.1630                 0.1692    
  Atom  AN      X      Y      Z        X      Y      Z        X      Y      Z
     1   6    -0.01  -0.09  -0.00     0.03  -0.00   0.01    -0.01   0.00   0.03
     2   1     0.00   0.02  -0.00     0.01   0.16   0.01     0.05   0.72   0.03
     3   1    -0.00   0.01   0.00     0.04   0.54   0.02    -0.04  -0.50  -0.01
     4   1     0.00   0.01   0.00    -0.04  -0.70  -0.02    -0.01  -0.23  -0.01
     5   1     0.06   0.99   0.03    -0.41   0.03  -0.09     0.09   0.01  -0.42
                      4                      5                      6
                      A                      A                      A
 Frequencies --    600.3995              1410.8947              1411.7223
 Red. masses --      1.1913                 1.1012                 1.1011
 Frc consts  --      0.2530                 1.2915                 1.2930
 IR Inten    --   68.96                  3.157                  3.152    
  Atom  AN      X      Y      Z        X      Y      Z        X      Y      Z
     1   6     0.01   0.13   0.00    -0.09   0.01  -0.02    -0.02  -0.00   0.09
     2   1    -0.04  -0.57   0.00     0.79  -0.05  -0.02     0.16  -0.04   0.07
     3   1    -0.02  -0.56  -0.03     0.22  -0.01   0.50    -0.34   0.06  -0.50
     4   1    -0.06  -0.56  -0.03     0.06  -0.02  -0.26     0.41   0.01  -0.65
     5   1     0.01   0.16   0.01    -0.00   0.00  -0.00    -0.00   0.00   0.00
                      7                      8                      9
                      A                      A                      A
 Frequencies --   3124.0105              3305.2971              3305.9444
 Red. masses --      1.0081                 1.1185                 1.1186
 Frc consts  --      5.7966                 7.1998                 7.2031
 IR Inten    --  0.4269E-01              2.386                  2.394    
  Atom  AN      X      Y      Z        X      Y      Z        X      Y      Z
     1   6    -0.00  -0.00  -0.00     0.10  -0.01   0.02    -0.02  -0.00   0.10
     2   1    -0.00  -0.00   0.58     0.01  -0.00  -0.12    -0.00   0.00  -0.80
     3   1     0.50  -0.00  -0.29    -0.54   0.00   0.32     0.45  -0.00  -0.24
     4   1    -0.50   0.06  -0.29    -0.65   0.09  -0.38    -0.26   0.03  -0.13
     5   1     0.00   0.00  -0.00    -0.00   0.00  -0.00     0.00  -0.00  -0.00

 -------------------
 - Thermochemistry -
 -------------------
 Temperature   298.150 Kelvin.  Pressure   1.00000 Atm.
 Atom     1 has atomic number  6 and mass  12.00000
 Atom     2 has atomic number  1 and mass   1.00783
 Atom     3 has atomic number  1 and mass   1.00783
 Atom     4 has atomic number  1 and mass   1.00783
 Atom     5 has atomic number  1 and mass   1.00783
 Molecular mass:    16.03130 amu.
 Principal axes and moments of inertia in atomic units:
                           1         2         3
     Eigenvalues --    12.53625  32.88019  32.88422
           X            0.06258  -0.09614   0.99340
           Y            0.99741  -0.02934  -0.06567
           Z            0.03546   0.99493   0.09406
 This molecule is an asymmetric top.
 Rotational symmetry number  1.
 Rotational temperatures (Kelvin)      6.90907     2.63422     2.63390
 Rotational constants (GHZ):         143.96177    54.88840    54.88168
    1 imaginary frequencies ignored.
 Zero-point vibrational energy      82043.3 (Joules/Mol)
                                   19.60882 (Kcal/Mol)
 Warning -- explicit consideration of   3 degrees of freedom as
           vibrations may cause significant error
 Vibrational temperatures:    394.35   408.92   863.84  2029.96  2031.15
          (Kelvin)           4494.75  4755.58  4756.51
 
 Zero-point correction=                           0.031249 (Hartree/Particle)
 Thermal correction to Energy=                    0.035149
 Thermal correction to Enthalpy=                  0.036093
 Thermal correction to Gibbs Free Energy=         0.009923
 Sum of electronic and zero-point Energies=            -40.313889
 Sum of electronic and thermal Energies=               -40.309989
 Sum of electronic and thermal Enthalpies=             -40.309045
 Sum of electronic and thermal Free Energies=          -40.335215
 
                     E (Thermal)             CV                S
                      KCal/Mol        Cal/Mol-Kelvin    Cal/Mol-Kelvin
 Total                   22.056             10.621             55.080
 Electronic               0.000              0.000              0.000
 Translational            0.889              2.981             34.261
 Rotational               0.889              2.981             17.257
 Vibrational             20.279              4.659              3.562
 Vibration     1          0.676              1.721              1.570
 Vibration     2          0.683              1.703              1.508
 Vibration     3          0.959              1.031              0.449
                       Q            Log10(Q)             Ln(Q)
 Total Bot       0.272719D-04         -4.564285        -10.509654
 Total V=0       0.644259D+10          9.809061         22.586197
 Vib (Bot)       0.820192D-14        -14.086084        -32.434408
 Vib (Bot)    1  0.703642D+00         -0.152649         -0.351486
 Vib (Bot)    2  0.674954D+00         -0.170726         -0.393111
 Vib (Bot)    3  0.248598D+00         -0.604502         -1.391916
 Vib (V=0)       0.193759D+01          0.287261          0.661443
 Vib (V=0)    1  0.136320D+01          0.134559          0.309834
 Vib (V=0)    2  0.133998D+01          0.127098          0.292653
 Vib (V=0)    3  0.105839D+01          0.024646          0.056750
 Electronic      0.100000D+01          0.000000          0.000000
 Translational   0.252295D+07          6.401908         14.740939
 Rotational      0.131793D+04          3.119891          7.183815
 -------------------------------------------------------------------
 Center     Atomic                   Forces (Hartrees/Bohr)
 Number     Number              X              Y              Z
 -------------------------------------------------------------------
      1        6          -0.000422360   -0.006727850   -0.000373414
      2        1           0.000008765    0.000001982    0.000032062
      3        1          -0.000008012   -0.000007722    0.000050456
      4        1          -0.000002888   -0.000029467    0.000054214
      5        1           0.000424496    0.006763058    0.000236681
 -------------------------------------------------------------------
 Cartesian Forces:  Max     0.006763058 RMS     0.002470689
 -----------------------------------------------------------------------------------------------
                       Internal Coordinate Forces (Hartree/Bohr or radian)
  Cent   Atom   N1       Length/X         N2         Alpha/Y        N3         Beta/Z          J
 -----------------------------------------------------------------------------------------------
      1  C 
      2  H        1   0.000032(     1)
      3  H        1  -0.000032(     2)      2  -0.000081(     5)
      4  H        1  -0.000028(     3)      2  -0.000095(     6)      3  -0.000052(     8)     0
      5  H        1  -0.006780(     4)      2   0.000044(     7)      3   0.000028(     9)     0
 -----------------------------------------------------------------------------------------------
 Internal  Forces:  Max     0.006780492 RMS     0.002260750

 GradGradGradGradGradGradGradGradGradGradGradGradGradGradGradGradGradGrad
 Berny optimization.
 Search for a local minimum.
 Step number   1 out of a maximum of    2
 All quantities printed in internal units (Hartrees-Bohrs-Radians)
 Second derivative matrix not updated -- analytic derivatives used.
 The second derivative matrix:
                          R1        R2        R3        A2        A3
           R1           0.37224
           R2          -0.00003   0.37213
           R3          -0.00002  -0.00001   0.37209
           A2           0.01567   0.00022  -0.01559   0.18844
           A3           0.01566  -0.01560   0.00014   0.09340   0.18867
           D3           0.00019  -0.00168  -0.00200   0.01072   0.00952
           DH1          0.00000  -0.00028   0.00028  -0.00099   0.00100
           ANG1        -0.00032   0.00017   0.00016  -0.00059  -0.00062
           BB          -0.00018  -0.00017  -0.00017  -0.00017  -0.00016
                          D3        DH1      ANG1       BB
           D3           0.01674
           DH1         -0.00631   0.01327
           ANG1        -0.00375  -0.00015   0.01297
           BB           0.00208  -0.00008   0.00016  -0.01172
 ITU=  0
     Eigenvalues ---    0.00706   0.01317   0.02193   0.09430   0.27519
     Eigenvalues ---    0.37212   0.37301   0.379761000.00000
 Angle between quadratic step and forces=  56.59 degrees.
 Linear search not attempted -- first point.
 Variable       Old X    -DE/DX   Delta X   Delta X   Delta X     New X
                                 (Linear)    (Quad)   (Total)
    R1        2.03760   0.00003   0.00000   0.00011   0.00011   2.03771
    R2        2.03782  -0.00003   0.00000  -0.00011  -0.00011   2.03771
    R3        2.03781  -0.00003   0.00000  -0.00009  -0.00009   2.03772
    A2        2.09227  -0.00008   0.00000  -0.00016  -0.00016   2.09211
    A3        2.09212  -0.00009   0.00000  -0.00035  -0.00035   2.09177
    D3        3.27389  -0.00005   0.00000  -0.00167  -0.00167   3.27222
   DH1        1.63427   0.00003   0.00000   0.00138   0.00138   1.63565
   ANG1       1.60693   0.00004   0.00000   0.00290   0.00290   1.60984
    BB        5.29123  -0.00678   0.00000   0.00000   0.00000   5.29123
         Item               Value     Threshold  Converged?
 Maximum Force            0.000095     0.000450     YES
 RMS     Force            0.000055     0.000300     YES
 Maximum Displacement     0.002903     0.001800     NO 
 RMS     Displacement     0.001216     0.001200     NO 
 Predicted change in Energy=-1.550792D-07
 GradGradGradGradGradGradGradGradGradGradGradGradGradGradGradGradGradGrad


 Test job not archived.
 1\1\GINC-NODE-6-6\Freq\UwB97XD\Aug-CC-pVTZ\C1H4\CAVALLOTTI\03-Jun-2023
 \1\\#N Geom=AllCheck Guess=TCheck SCRF=Check Test GenChk UwB97XD/Aug-C
 C-pVTZ Freq\\geom 0\\0,1\C\H,1,R1\H,1,R2,2,A2\H,1,R3,2,A3,3,D3,0\H,1,B
 B,2,ANG1,3,DH1,0\\R1=1.07825252\R2=1.07836961\R3=1.07836358\A2=119.878
 30101\A3=119.8698171\D3=187.58016544\DH1=93.63667546\ANG1=92.07056977\
 BB=2.8\\Version=EM64L-G09RevD.01\HF=-40.3451379\S2=0.903202\S2-1=0.\S2
 A=0.023466\RMSD=2.829e-09\RMSF=2.471e-03\ZeroPoint=0.0312486\Thermal=0
 .035149\Dipole=0.0104193,0.1616657,0.0059575\DipoleDeriv=0.0069873,-0.
 0421836,-0.0014499,-0.0423726,-0.6400546,-0.0255611,-0.0014993,-0.0247
 599,0.0090927,0.0476014,0.0065588,-0.0008016,0.006617,0.1433164,-0.012
 0464,-0.0003113,-0.0033054,-0.0417373,-0.020044,0.0001836,0.0380961,-0
 .0075517,0.1424582,0.0119088,0.0374806,0.0072358,0.0258031,-0.0162915,
 0.0206294,-0.0363407,0.028455,0.1374896,0.0170197,-0.036176,0.0121349,
 0.0258039,-0.0182531,0.0148117,0.0004961,0.0148523,0.2167904,0.008679,
 0.000506,0.0086945,-0.0189624\Polar=20.9156111,1.1215003,38.5261582,0.
 0418357,0.6267853,20.8639882\PG=C01 [X(C1H4)]\NImag=1\\0.61872339,-0.0
 3982081,0.01931335,-0.00161424,-0.02297121,0.62099219,-0.05467381,0.00
 294130,-0.00011270,0.04535470,0.00294642,-0.01008370,-0.00166109,-0.00
 265320,0.00562434,0.00008835,0.00126181,-0.35900544,-0.00006702,-0.001
 11431,0.37224111,-0.28336271,0.00263674,0.13150648,0.00476745,0.000245
 13,-0.00385880,0.29096790,0.00002842,-0.01002177,0.00337047,0.00032769
 ,0.00274913,0.00007755,-0.00231224,0.00543947,0.13134909,0.00194068,-0
 .13016030,0.02367084,0.00024230,-0.00664907,-0.14117471,-0.00173333,0.
 12654965,-0.27900735,0.03315799,-0.12982330,0.00465146,-0.00047503,0.0
 0382676,-0.01238017,0.00270514,-0.01372880,0.28666430,0.03574812,-0.01
 437688,0.02067612,-0.00054601,0.00290332,-0.00039945,-0.00067794,0.002
 95134,-0.00030033,-0.03511789,0.00972639,-0.12986582,0.01920144,-0.130
 10723,-0.02343663,0.00335810,-0.00665360,0.01357861,-0.00207682,0.0102
 9699,0.13962715,-0.02032479,0.12650368,-0.00167953,0.00108478,0.000043
 76,-0.00009980,-0.00006333,0.00001070,0.00000753,-0.00074901,-0.000116
 41,0.00007176,0.00059372,0.00009669,0.00170004,0.00109786,0.01516901,0
 .00058570,-0.00006978,-0.00119309,0.00017440,0.00010831,-0.00111817,-0
 .00014931,-0.00027022,-0.00120417,-0.00015793,-0.00086616,-0.01165358,
 0.00004262,0.00056729,-0.00171923,-0.00005448,-0.00082501,0.00006700,-
 0.00005157,0.00036213,-0.00003727,0.00009819,0.00034845,-0.00003983,-0
 .00003474,-0.00045287,0.00172934\\0.00042236,0.00672785,0.00037341,-0.
 00000876,-0.00000198,-0.00003206,0.00000801,0.00000772,-0.00005046,0.0
 0000289,0.00002947,-0.00005421,-0.00042450,-0.00676306,-0.00023668\\\@


 WHEN HAVING A MEETING OF THE MINDS,
 MAKE SURE YOU HAVE THE EQUIPMENT FOR IT.
 Job cpu time:       0 days  0 hours  7 minutes 40.0 seconds.
 File lengths (MBytes):  RWF=     66 Int=      0 D2E=      0 Chk=      3 Scr=      1
 Normal termination of Gaussian 09 at Sat Jun  3 08:53:02 2023.
