
 Working directory              : /scratch/cc//molpro.Tt5ls7G9bI/
 Global scratch directory       : /scratch/cc//molpro.Tt5ls7G9bI/
 Wavefunction directory         : /home/chimica2/cavallotti/wfu/
 Main file repository           : /scratch/cc//molpro.Tt5ls7G9bI/

 id        : polimi

 Nodes     nprocs
 node-6-10    1
 Distribution of processes:   nprocs(total)=    2   nprocs(compute)=    1   nprocs(helper)=    1
 GA implementation: MPI file
 GA implementation (serial work in mppx): MPI file

 Using customized tuning parameters: mindgm=1; mindgv=20; mindgc=4; mindgr=1; noblas=0; minvec=7
 default implementation of scratch files=df  


 Variables initialized (1009), CPU time= 0.00 sec
  memory,         400 ,m
 
 symmetry, nosym; orient, noorient
 angstrom
 geomtyp=xyz
 geometry={
 5
 rotational dynamics
 C, -0.00329981, 0.0947152, -0.116944
 H, 0.548227, 0.973088, -0.411554
 H, 0.519148, -0.826185, 0.0867934
 H, -1.07654, 0.137923, -0.0230689
 H, 0.0484534, -1.41258, 1.74026
 }
 
  basis=cc-pvdz
  {multi;closed, 4;occ, 6;wf, 10,1,0,;state,1;maxiter,40}
  if (iterations.ge.0) then
     {rs2,shift=0.2;orbital,IGNORE_ERROR;state,1}
     molpro_energy = energy +   40.192865169999997
  else
     molpro_energy = 10.0
  endif
 Commands initialized (810), CPU time= 0.01 sec, 661 directives.
 Default parameters read. Elapsed time= 0.32 sec

 Checking input...
 Passed
1


                                         ***  PROGRAM SYSTEM MOLPRO  ***
                                       Copyright, TTI GmbH Stuttgart, 2015
                                    Version 2021.2 linked Jun  2 2021 16:00:59


 **********************************************************************************************************************************
 LABEL *                                                                                 
  64 bit serial version                                                                  DATE: 03-Jun-23          TIME: 09:12:29  
 **********************************************************************************************************************************

 SHA1:             1987c3f1b0c3ae76932bc24993909f2d7ae6b1f1
 **********************************************************************************************************************************

 Memory per process:       400 MW
 Total memory per node:    400 MW

 GA preallocation disabled
 GA check disabled

 Variable memory set to 400.0 MW

 SETTING GEOMTYP        =    XYZ
 ZSYMEL=NOSYM
 ZUNIT=ANG

 SETTING BASIS          =    CC-PVDZ


 Recomputing integrals since basis changed


 Using spherical harmonics

 Library entry C      S cc-pVDZ              selected for orbital group  1
 Library entry C      P cc-pVDZ              selected for orbital group  1
 Library entry C      D cc-pVDZ              selected for orbital group  1
 Library entry H      S cc-pVDZ              selected for orbital group  2
 Library entry H      P cc-pVDZ              selected for orbital group  2


 PROGRAM * SEWARD (Integral evaluation for generally contracted gaussian basis sets)     Author: Roland Lindh, 1990

 Geometry written to block  1 of record 700


 Point group  C1  



 ATOMIC COORDINATES

 NR  ATOM    CHARGE       X              Y              Z

   1  C       6.00   -0.006235737    0.178985788   -0.220992132
   2  H       1.00    1.035998884    1.838869815   -0.777724345
   3  H       1.00    0.981047538   -1.561263378    0.164015755
   4  H       1.00   -2.034365762    0.260636696   -0.043593903
   5  H       1.00    0.091563656   -2.669389329    3.288614786

 Bond lengths in Bohr (Angstrom)

 1-2  2.037503067  1-3  2.037504969  1-4  2.037510344
     ( 1.078200190)     ( 1.078201197)     ( 1.078204041)

 Bond angles

  2-1-3  119.97236927   2-1-4  120.02076447   3-1-4  120.00658737

 NUCLEAR CHARGE:                   10
 NUMBER OF PRIMITIVE AOS:          55
 NUMBER OF SYMMETRY AOS:           54
 NUMBER OF CONTRACTIONS:           34   (   34A   )
 NUMBER OF INNER CORE ORBITALS:     0   (    0A   )
 NUMBER OF OUTER CORE ORBITALS:     1   (    1A   )
 NUMBER OF VALENCE ORBITALS:        8   (    8A   )


 NUCLEAR REPULSION ENERGY   11.66885987

 Eigenvalues of metric

         1 0.147E-01 0.333E-01 0.352E-01 0.420E-01 0.502E-01 0.530E-01 0.775E-01 0.114E+00


 Contracted 2-electron integrals neglected if value below      1.0D-11
 AO integral compression algorithm  1   Integral accuracy      1.0D-11

     1.311 MB (compressed) written to integral file ( 59.8%)


 NUMBER OF SORTED TWO-ELECTRON INTEGRALS:     177310.     BUFFER LENGTH:  32768
 NUMBER OF SEGMENTS:   1  SEGMENT LENGTH:     177310      RECORD LENGTH: 524288

 Memory used in sort:       0.73 MW

 SORT1 READ      219389. AND WROTE      172155. INTEGRALS IN      1 RECORDS. CPU TIME:     0.00 SEC, REAL TIME:     0.01 SEC
 SORT2 READ      172155. AND WROTE      177310. INTEGRALS IN      5 RECORDS. CPU TIME:     0.02 SEC, REAL TIME:     0.03 SEC

 FILE SIZES:   FILE 1:    31.4 MBYTE,  FILE 4:     4.2 MBYTE,   TOTAL:     35.6 MBYTE

 OPERATOR DM      FOR CENTER  0  COORDINATES:    0.000000    0.000000    0.000000


 **********************************************************************************************************************************
 DATASETS  * FILE   NREC   LENGTH (MB)   RECORD NAMES
              1      19       29.47       500      610      700      900      950      970     1000      129      960     1100   
                                          VAR    BASINP    GEOM    SYMINP    ZMAT    AOBASIS   BASIS     P2S    ABASIS      S 
                                         1400     1410     1200     1210     1080     1600     1650     1300     1700   
                                           T        V       H0       H01     AOSYM     SMH    MOLCAS    ERIS     OPER   

 PROGRAMS   *        TOTAL       INT
 CPU TIMES  *         0.36      0.21
 REAL TIME  *         0.99 SEC
 DISK USED  *        34.26 MB
 **********************************************************************************************************************************

 PROGRAM * MULTI (Direct Multiconfiguration SCF)       Authors: P.J. Knowles, H.-J. Werner (1984)
                                                                D.A. Kreplin, P.J. Knowles, H.-J. Werner (2019)

 Number of closed-shell orbitals:   4 (   4 )
 Number of active  orbitals:        2 (   2 )
 Number of external orbitals:      28 (  28 )

 State symmetry 1

 Number of active electrons:   2    Spin symmetry=Singlet   Space symmetry=1
 Number of states:             1
 Number of CSFs:               3   (4 determinants, 4 intermediate states)

 Orbital guess generated from atomic densities. Full valence occupancy:    9

 Wavefunction dump at record             2140.2

 Convergence thresholds  0.10E-04 (gradient)  0.10E-05 (energy)
 
 Number of orbital rotations:  176  ( 8 closed/active, 112 closed/virtual, 0 active/active, 56 active/virtual )
 Total number of variables:    180
 
  Second-order MCSCF: L-BFGS accelerated
 
 ITER  MIC  NCI  NEG     ENERGY(VAR)    ENERGY(PROJ) ENERGY CHANGE       GRAD(0)  GRAD(ORB)   GRAD(CI)      STEP      TIME
   1    6    5    0    -40.03601166     -40.05900515   -0.02299349    0.15222507 0.00054933 0.00000000  0.17E+00      0.09
   2    9    8    0    -40.05890732     -40.05891629   -0.00000897    0.00367918 0.00000010 0.00000000  0.31E-02      0.21
   3    5    5    0    -40.05891629     -40.05891629   -0.00000000    0.00000278 0.00000000 0.00000000  0.33E-05      0.29

 CONVERGENCE REACHED!  Final gradient:    0.00000000 ( 0.10E-09)
                       Final energy:    -40.05891629
 
 First order charge density matrix for state 1.1 saved on record 2140.2 (density set 1)
 
 Results for state 1.1
 =====================
 !MCSCF STATE 1.1 Energy                       -40.058916292857
 Nuclear energy                                 11.66885987
 Kinetic energy                                 39.98706438
 One electron energy                           -75.98993668
 Two electron energy                            24.26216052
 Virial ratio                                    2.00179688
 
 !MCSCF STATE 1.1 Dipole moment                  0.00277394     0.06831695    -0.12935276
 Dipole moment /Debye                            0.00705066     0.17364436    -0.32878192
 
 No non-zero expectation values
 
 
 Natural orbital dump at molpro section 2140.2 (Orbital set 2)


 **********************************************************************************************************************************
 DATASETS  * FILE   NREC   LENGTH (MB)   RECORD NAMES
              1      20       29.77       500      610      700      900      950      970     1000      129      960     1100   
                                          VAR    BASINP    GEOM    SYMINP    ZMAT    AOBASIS   BASIS     P2S    ABASIS      S 
                                         1400     1410     1200     1210     1080     1600     1650     1300     1700     1380   
                                           T        V       H0       H01     AOSYM     SMH    MOLCAS    ERIS     OPER     JKOP   

              2       4        2.72       700     1000      520     2140   
                                         GEOM     BASIS   MCVARS    MCSCF   

 PROGRAMS   *        TOTAL     MULTI       INT
 CPU TIMES  *         0.58      0.22      0.21
 REAL TIME  *         1.41 SEC
 DISK USED  *        34.26 MB
 **********************************************************************************************************************************


 PROGRAM * RS2 (Multireference RS Perturbation Theory)     Authors: H.-J. Werner (1993), P. Celani (1998)


 Level shift= 0.20

 Convergence thresholds:  THRVAR = 1.00D-08  THRDEN = 1.00D-06

 Number of optimized states: 1  Roots:    1
 Number of reference states: 1  Roots:    1

 Reference symmetry:                   1   Singlet 
 Number of electrons:                 10
 Maximum number of shells:             4
 Maximum number of spin couplings:     5

 Reference space:        3 conf        3 CSFs
 N elec internal:       15 conf       15 CSFs
 N-1 el internal:       23 conf       32 CSFs
 N-2 el internal:       25 conf       52 CSFs

 Number of electrons in valence space:                      8
 Maximum number of open shell orbitals in reference space:  2
 Maximum number of open shell orbitals in internal spaces:  6


 Number of core orbitals:           1 (   1 )
 Number of closed-shell orbitals:   3 (   3 )
 Number of active  orbitals:        2 (   2 )
 Number of external orbitals:      28 (  28 )

 Molecular orbitals read from record     2140.2  Type=MCSCF/NATURAL (state 1.1)

 Integral transformation finished. Total CPU:   0.00 sec, npass=  1  Memory used:   0.11 MW


 Number of p-space configurations:   3

 Reference wavefunction optimized for reference space (refopt=1)

 State     Reference Energy 
     1       -40.05891629

 Number of blocks in overlap matrix:     2   Smallest eigenvalue:  0.10D+01
 Number of N-2 electron functions:      22
 Number of N-1 electron functions:      32

 Number of internal configurations:                   15
 Number of singly external configurations:           896
 Number of doubly external configurations:          8680
 Total number of contracted configurations:         9591
 Total number of uncontracted configurations:      21351

 Weight factors for SA-density in H0:    1.000000

 FIMAX=  0.29D-01  FXMAX=  0.40D-13  DIAG=  F  T  NOREF=1  NOINT=0  IHPPD=2

 Nuclear energy:                      11.66885987
 Core energy:                        -35.74572772
 Zeroth-order valence energy:         -4.47374677
 Zeroth-order total energy:          -28.55061461
 First-order energy:                 -11.50830168

 Using uncontracted singles

 Diagonal Coupling coefficients finished.               Storage:     883 words, CPU-Time:      0.00 seconds.
 Energy denominators for pairs finished in 0 passes.    Storage:    2295 words, CPU-time:      0.00 seconds.

 A level shift of 0.20 is applied.

  ITER. STATE  ROOT     SQ.NORM     CORR.ENERGY   TOTAL ENERGY   ENERGY CHANGE       DEN1      VAR(S)    VAR(P)      TIME
    1     1     1     1.00682899    -0.00136580   -40.06028209    -0.00136580    -0.12812850  0.68D-02  0.36D-01     0.02
    2     1     1     1.04266192    -0.13676091   -40.19567720    -0.13539511    -0.00001507  0.23D-04  0.14D-04     0.02
    3     1     1     1.04268781    -0.13683255   -40.19574885    -0.00007165    -0.00004386  0.21D-06  0.51D-07     0.02
    4     1     1     1.04270778    -0.13683696   -40.19575325    -0.00000440    -0.00000084  0.18D-08  0.89D-09     0.02
    5     1     1     1.04270829    -0.13683706   -40.19575335    -0.00000010    -0.00000029  0.31D-10  0.68D-11     0.02
    6     1     1     1.04270841    -0.13683708   -40.19575338    -0.00000002    -0.00000002  0.42D-12  0.15D-12     0.02

 Energies without level shift correction:

    6     1     1     1.04270841    -0.12829540   -40.18721169

 Energy contributions for state 1.1:
 ===================================

            Energy contr.      SQ.Norm of FOWF
 Space I     -0.00017639          0.00011159
 Space S     -0.01419258          0.00693548
 Space P     -0.11392643          0.03566134


 =====================================
 Analysis of CPU times by interactions
 =====================================

       I      S      P

 I   0.0%
 S   0.0%   0.0%
 P   0.0%   0.0%   0.0%

 Initialization:  50.0%
 Other:           50.0%

 Total CPU:        0.0 seconds
 =====================================



 gnormi=  1.00011159  gnorms=  0.00693548  gnormp=  0.03566134  gnorm=  1.04270841
 ecorri= -0.00017639  ecorrs= -0.01419258  ecorrp= -0.11392643  ecorr= -0.13683708

 Reference coefficients greater than 0.0500000
 =============================================
 22220           0.8402137
 22202          -0.5422553


 RESULTS FOR STATE 1.1
 =====================

 Coefficient of reference function:   C(0) = 1.00000000 (fixed)   1.00000000 (relaxed)

 Energy contributions of configuration classes

 CLASS          SQ.NORM        ECORR1        ECORR2
 +++++++++++++++++++++++++++++++++++++++++++++++++++
 Internals    0.00011159   -0.00017639    0.13646081
 Singles      0.00693548   -0.01419258   -0.03027499
 Pairs        0.03566134   -0.11392643   -0.24302290
 Total        1.04270841   -0.12829540   -0.13683708
 +++++++++++++++++++++++++++++++++++++++++++++++++++


 Reference energy                     -40.05891629
 Nuclear energy                        11.66885987
 Kinetic energy                        40.08353389
 One electron energy                  -75.92966565
 Two electron energy                   24.06505240
 Virial quotient                       -1.00279964
 Correlation energy                    -0.13683708
 !RSPT2 STATE 1.1 Energy              -40.195753375664

 Properties without orbital relaxation:

 !RSPT2 STATE 1.1 Dipole moment         0.00253138     0.06927018    -0.13220423
 Dipole moment /Debye                   0.00643412     0.17606723    -0.33602965


 **********************************************************************************************************************************
 DATASETS  * FILE   NREC   LENGTH (MB)   RECORD NAMES
              1      20       29.77       500      610      700      900      950      970     1000      129      960     1100   
                                          VAR    BASINP    GEOM    SYMINP    ZMAT    AOBASIS   BASIS     P2S    ABASIS      S 
                                         1400     1410     1200     1210     1080     1600     1650     1300     1700     1380   
                                           T        V       H0       H01     AOSYM     SMH    MOLCAS    ERIS     OPER     JKOP   

              2       4        2.72       700     1000      520     2140   
                                         GEOM     BASIS   MCVARS    MCSCF   

 PROGRAMS   *        TOTAL       RS2     MULTI       INT
 CPU TIMES  *         0.65      0.06      0.22      0.21
 REAL TIME  *         1.58 SEC
 DISK USED  *        34.26 MB
 **********************************************************************************************************************************
 SETTING MOLPRO_ENERGY  =        -0.00288821  AU                              

 RS2/cc-pVDZ energy=    -40.195753375664

             RS2           MULTI
    -40.19575338    -40.05891629
 **********************************************************************************************************************************
 Molpro calculation terminated
