
 Working directory              : /scratch/cc/139154/molpro.CID6Z1m3t4/
 Global scratch directory       : /scratch/cc/139154/molpro.CID6Z1m3t4/
 Wavefunction directory         : /home/chimica2/cavallotti/wfu/
 Main file repository           : /scratch/cc/139154/molpro.CID6Z1m3t4/

 id        : polimi

 Nodes     nprocs
 node-6-11    4
 GA implementation: MPI file
 GA implementation (serial work in mppx): MPI file

 Using customized tuning parameters: mindgm=1; mindgv=20; mindgc=4; mindgr=1; noblas=0; minvec=7
 default implementation of scratch files=sf  


 Variables initialized (1015), CPU time= 0.01 sec
  memory,         400 ,m
   nosym
  geometry={angstrom
    C1
    H2   C1   R1
    H3   C1   R2   H2   A2
    H4   C1   R3   H2   A3   H3   D3
    C21 C1 BB H2 ANG1 H3 DH1
    H22 C21 R21 C1 ANG2 H2 DH2
    H23 C21 R22 H22 A22 C1 DH3
    H24 C21 R23 H22 A23 H23 D23
  }
  R1                             =    1.0782000000000000
  R2                             =    1.0782000000000000
  R3                             =    1.0782000000000000
  A2                             =    119.97720000000000
  A3                             =    120.02360000000000
  D3                             =    180.41739999999999
  R21                            =    1.0782000000000000
  R22                            =    1.0782000000000000
  R23                            =    1.0782000000000000
  A22                            =    119.96180000000000
  A23                            =    120.02710000000000
  D23                            =    179.61630000000000
  ANG2                           =    90.068700000000007
  DH3                            =    89.612600000000000
  DH2                            =    59.568899999999999
  DH1                            =    89.768000000000001
  ANG1                           =    90.100700000000003
  BB                             =    3.7999999999999998
 
   basis=cc-pvdz
   {multi;closed, 8;occ,10;wf, 18,1,0,;state,1;maxiter,40}
   {RS2,SHIFT=0.2;ORBITAL,IGNORE_ERROR;STATE,1}
   CBSen = energy
  put,molden,molpro.molden
 Commands initialized (834), CPU time= 0.01 sec, 672 directives.
 Default parameters read. Elapsed time= 0.13 sec

 Checking input...
 Passed
1


                                         ***  PROGRAM SYSTEM MOLPRO  ***
                                       Copyright, TTI GmbH Stuttgart, 2015
                                    Version 2022.2 linked Thu Sep 29 12:37:28 2022


 **********************************************************************************************************************************
 LABEL *                                                                                 
  64 bit mpp version                                                                     DATE: 27-May-23          TIME: 09:31:37  
 **********************************************************************************************************************************

 SHA1:             51306cdc306ce2a111a2867affebcb289530e0a7
 **********************************************************************************************************************************

 Memory per process:       400 MW
 Total memory per node:   1600 MW

 GA preallocation disabled
 GA check disabled

 Variable memory set to 400.0 MW

 ZSYMEL=NOSYM

 SETTING R1             =         1.07820000                                  
 SETTING R2             =         1.07820000                                  
 SETTING R3             =         1.07820000                                  
 SETTING A2             =       119.97720000                                  
 SETTING A3             =       120.02360000                                  
 SETTING D3             =       180.41740000                                  
 SETTING R21            =         1.07820000                                  
 SETTING R22            =         1.07820000                                  
 SETTING R23            =         1.07820000                                  
 SETTING A22            =       119.96180000                                  
 SETTING A23            =       120.02710000                                  
 SETTING D23            =       179.61630000                                  
 SETTING ANG2           =        90.06870000                                  
 SETTING DH3            =        89.61260000                                  
 SETTING DH2            =        59.56890000                                  
 SETTING DH1            =        89.76800000                                  
 SETTING ANG1           =        90.10070000                                  
 SETTING BB             =         3.80000000                                  
 SETTING BASIS          =    CC-PVDZ


 Recomputing integrals since basis changed


 Using spherical harmonics

 Library entry C      S cc-pVDZ              selected for orbital group  1
 Library entry C      P cc-pVDZ              selected for orbital group  1
 Library entry C      D cc-pVDZ              selected for orbital group  1
 Library entry H      S cc-pVDZ              selected for orbital group  2
 Library entry H      P cc-pVDZ              selected for orbital group  2


 PROGRAM * SEWARD (Integral evaluation for generally contracted gaussian basis sets)     Author: Roland Lindh, 1990

 Geometry written to block  1 of record 700

 Orientation using atomic masses  
 Molecule type: Asymmetric top
 Rotational constants:       4.5075836      4.5076428     71.8872866 GHz  (calculated with average atomic masses)

 Point group  C1  



 ATOMIC COORDINATES

 NR  ATOM    CHARGE       X              Y              Z

   1  C1      6.00    0.000211807   -0.000492702   -3.590444660
   2  H2      1.00   -0.326895286    2.010577507   -3.594297668
   3  H3      1.00    1.905676799   -0.721974929   -3.581287877
   4  H4      1.00   -1.577225764   -1.289980398   -3.608596115
   5  C21     6.00   -0.000283976    0.000397905    3.590514542
   6  H22     1.00   -1.899989485    0.736965166    3.592735081
   7  H23     1.00    1.586576158    1.278332899    3.577310306
   8  H24     1.00    0.312717567   -2.012790605    3.613303533

 Bond lengths in Bohr (Angstrom)

 1-2  2.037502708  1-3  2.037502708  1-4  2.037502708  5-6  2.037502708  5-7  2.037502708
     ( 1.078200000)     ( 1.078200000)     ( 1.078200000)     ( 1.078200000)     ( 1.078200000)

 5-8  2.037502708
     ( 1.078200000)

 Bond angles

  2-1-3  119.97720000   2-1-4  120.02360000   3-1-4  119.99788335   6-5-7  119.96180000

  6-5-8  120.02710000   7-5-8  120.00998710

 NUCLEAR CHARGE:                   18
 NUMBER OF PRIMITIVE AOS:          96
 NUMBER OF SYMMETRY AOS:           94
 NUMBER OF CONTRACTIONS:           58   (   58A   )
 NUMBER OF INNER CORE ORBITALS:     0   (    0A   )
 NUMBER OF OUTER CORE ORBITALS:     2   (    2A   )
 NUMBER OF VALENCE ORBITALS:       14   (   14A   )


 NUCLEAR REPULSION ENERGY   30.36846879


 Eigenvalues of metric

         1 0.147E-01 0.154E-01 0.349E-01 0.349E-01 0.355E-01 0.355E-01 0.416E-01 0.425E-01


 Contracted 2-electron integrals neglected if value below      1.0D-11
 AO integral compression algorithm  1   Integral accuracy      1.0D-11

     6.554 MB (compressed) written to integral file ( 50.7%)

     Node minimum: 1.311 MB, node maximum: 1.835 MB


 NUMBER OF SORTED TWO-ELECTRON INTEGRALS:     365512.     BUFFER LENGTH:  32768
 NUMBER OF SEGMENTS:   1  SEGMENT LENGTH:     365512      RECORD LENGTH: 524288

 Memory used in sort:       0.92 MW

 SORT1 READ     1676964. AND WROTE      329978. INTEGRALS IN      1 RECORDS. CPU TIME:     0.03 SEC, REAL TIME:     0.04 SEC
 SORT2 READ     1316476. AND WROTE     1464616. INTEGRALS IN     24 RECORDS. CPU TIME:     0.02 SEC, REAL TIME:     0.03 SEC

 Node minimum:      365512.  Node maximum:      366796. integrals

 OPERATOR DM      FOR CENTER  0  COORDINATES:    0.000000    0.000000    0.000000


 **********************************************************************************************************************************
 DATASETS  * FILE   NREC   LENGTH (MB)   RECORD NAMES
              1      18       28.78       500      610      700      900      950      970     1000      129      960     1100   
                                          VAR    BASINP    GEOM    SYMINP    ZMAT    AOBASIS   BASIS     P2S    ABASIS      S 
                                         1400     1410     1200     1210     1080     1600     1650     1700   
                                           T        V       H0       H01     AOSYM     SMH    MOLCAS    OPER   

 PROGRAMS   *        TOTAL       INT
 CPU TIMES  *         0.44      0.29
 REAL TIME  *         0.87 SEC
 DISK USED  *        29.15 MB (local),      137.51 MB (total)
 GA USED    *         0.00 MB       (max)       0.00 MB       (current)
 **********************************************************************************************************************************

 PROGRAM * MULTI (Direct Multiconfiguration SCF)       Authors: P.J. Knowles, H.-J. Werner (1984)
                                                                D.A. Kreplin, P.J. Knowles, H.-J. Werner (2019)

 Number of closed-shell orbitals:   8 (    8)
 Number of active  orbitals:        2 (    2)
 Number of external orbitals:      48 (   48)

 State symmetry 1

 Number of active electrons:   2    Spin symmetry=Singlet   Space symmetry=1
 Number of states:             1
 Number of CSFs:               3   (4 determinants, 4 intermediate states)

 Orbital guess generated from atomic densities. Full valence occupancy:   16

 Wavefunction dump at record             2140.2

 Convergence thresholds  0.10E-04 (gradient)  0.10E-05 (energy)
 
 Number of orbital rotations:  496  ( 16 closed/active, 384 closed/virtual, 0 active/active, 96 active/virtual )
 Total number of variables:    500
 
 Second-order MCSCF: L-BFGS accelerated
 
 ITER  MIC  NCI  NEG     ENERGY(VAR)    ENERGY(PROJ) ENERGY CHANGE       GRAD(0)  GRAD(ORB)   GRAD(CI)      STEP      TIME
   1    6    4    0    -79.10587258     -79.12052605   -0.01465347    0.17761149 0.00001761 0.00000000  0.89E-01      0.29
   2    8    6    0    -79.12045395     -79.12045665   -0.00000270    0.00242835 0.00000001 0.00000000  0.13E-02      0.72
   3    3    3    0    -79.12045665     -79.12045665   -0.00000000    0.00000074 0.00000001 0.00000000  0.39E-06      0.96

 CONVERGENCE REACHED!  Final gradient:    0.00000000 ( 0.43E-09)
                       Final energy:    -79.12045665
 
 First order charge density matrix for state 1.1 saved on record 2140.2 (density set 1)
 
 Results for state 1.1
 =====================
 !MCSCF STATE 1.1 Energy                       -79.120456650773
 Nuclear energy                                 30.36846879
 Kinetic energy                                 78.97903742
 One electron energy                          -165.19708039
 Two electron energy                            55.70815495
 Virial ratio                                    2.00179059
 
 !MCSCF STATE 1.1 Dipole moment                  0.00003800     0.00004963    -0.00015319
 Dipole moment /Debye                            0.00009660     0.00012615    -0.00038937
 
 No non-zero expectation values
 
 
 Natural orbital dump at molpro section 2140.2 (Orbital set 2)


 **********************************************************************************************************************************
 DATASETS  * FILE   NREC   LENGTH (MB)   RECORD NAMES
              1      19       30.97       500      610      700      900      950      970     1000      129      960     1100   
                                          VAR    BASINP    GEOM    SYMINP    ZMAT    AOBASIS   BASIS     P2S    ABASIS      S 
                                         1400     1410     1200     1210     1080     1600     1650     1700     1380   
                                           T        V       H0       H01     AOSYM     SMH    MOLCAS    OPER     JKOP   

              2       4        0.54       700     1000      520     2140   
                                         GEOM     BASIS   MCVARS    MCSCF   

 PROGRAMS   *        TOTAL     MULTI       INT
 CPU TIMES  *         0.90      0.46      0.29
 REAL TIME  *         1.96 SEC
 DISK USED  *        31.56 MB (local),      147.15 MB (total)
 SF USED    *         7.19 MB
 GA USED    *         0.00 MB       (max)       0.00 MB       (current)
 **********************************************************************************************************************************


 PROGRAM * RS2 (Multireference RS Perturbation Theory)     Authors: H.-J. Werner (1993), P. Celani (1998)


 Level shift= 0.20

 Convergence thresholds:  THRVAR = 1.00D-08  THRDEN = 1.00D-06

 Number of optimized states: 1  Roots:    1
 Number of reference states: 1  Roots:    1

 Reference symmetry:                   1   Singlet 
 Number of electrons:                 18
 Maximum number of shells:             4
 Maximum number of spin couplings:     5

 Reference space:        3 conf        3 CSFs
 N elec internal:       36 conf       36 CSFs
 N-1 el internal:       62 conf       98 CSFs
 N-2 el internal:       76 conf      184 CSFs

 Number of electrons in valence space:                     14
 Maximum number of open shell orbitals in reference space:  2
 Maximum number of open shell orbitals in internal spaces:  6


 Number of core orbitals:           2 (   2 )
 Number of closed-shell orbitals:   6 (   6 )
 Number of active  orbitals:        2 (   2 )
 Number of external orbitals:      48 (  48 )

 Molecular orbitals read from record     2140.2  Type=MCSCF/NATURAL (state 1.1)

 Integral transformation finished. Total CPU:   0.02 sec, npass=  1  Memory used:   0.33 MW


 Number of p-space configurations:   3

 Reference wavefunction optimized for reference space (refopt=1)

 State     Reference Energy 
     1       -79.12045665

 Number of blocks in overlap matrix:     2   Smallest eigenvalue:  0.10D+01
 Number of N-2 electron functions:      61
 Number of N-1 electron functions:      98

 Number of internal configurations:                   36
 Number of singly external configurations:          4704
 Number of doubly external configurations:         70440
 Total number of contracted configurations:        75180
 Total number of uncontracted configurations:     216660

 Weight factors for SA-density in H0:    1.000000

 FIMAX=  0.24D-03  FXMAX=  0.30D-13  DIAG=  F  T  NOREF=1  NOINT=0  IHPPD=2

 Nuclear energy:                      30.36846879
 Core energy:                        -74.99861926
 Zeroth-order valence energy:         -8.34342110
 Zeroth-order total energy:          -52.97357157
 First-order energy:                 -26.14688509

 Using uncontracted singles

 Diagonal Coupling coefficients finished.               Storage:    3121 words, CPU-Time:      0.00 seconds.
 Energy denominators for pairs finished in 0 passes.    Storage:    7322 words, CPU-time:      0.00 seconds.

 A level shift of 0.20 is applied.

  ITER. STATE  ROOT     SQ.NORM     CORR.ENERGY   TOTAL ENERGY   ENERGY CHANGE       DEN1      VAR(S)    VAR(P)      TIME
    1     1     1     1.01082755    -0.00216551   -79.12262216    -0.00216551    -0.25230888  0.11D-01  0.72D-01     0.03
    2     1     1     1.08306960    -0.26871684   -79.38917349    -0.26655133     0.00010602  0.30D-04  0.12D-04     0.05
    3     1     1     1.08302515    -0.26877778   -79.38923443    -0.00006094    -0.00003026  0.49D-07  0.67D-07     0.06
    4     1     1     1.08306114    -0.26878519   -79.38924184    -0.00000741     0.00000022  0.50D-09  0.97D-10     0.07
    5     1     1     1.08306114    -0.26878519   -79.38924184    -0.00000000    -0.00000007  0.61D-12  0.13D-11     0.08

 Energies without level shift correction:

    5     1     1     1.08306114    -0.25217296   -79.37262961

 Energy contributions for state 1.1:
 ===================================

            Energy contr.      SQ.Norm of FOWF
 Space I     -0.00006749          0.00004210
 Space S     -0.02336927          0.01075956
 Space P     -0.22873621          0.07225948


 =====================================
 Analysis of CPU times by interactions
 =====================================

       I      S      P

 I   0.0%
 S  25.0%   0.0%
 P   0.0%   0.0%  37.5%

 Initialization:  37.5%
 Other:            0.0%

 Total CPU:        0.1 seconds
 =====================================



 Reference coefficients greater than 0.0500000
 =============================================
 22222220           0.7674203
 22222202          -0.6411444


 RESULTS FOR STATE 1.1
 =====================

 Coefficient of reference function:   C(0) = 1.00000000 (fixed)   1.00000000 (relaxed)

 Energy contributions of configuration classes

 CLASS          SQ.NORM        ECORR1        ECORR2
 +++++++++++++++++++++++++++++++++++++++++++++++++++
 Internals    0.00004210   -0.00006749    0.26864132
 Singles      0.01075956   -0.02336927   -0.04981749
 Pairs        0.07225948   -0.22873621   -0.48760902
 Total        1.08306114   -0.25217296   -0.26878519
 +++++++++++++++++++++++++++++++++++++++++++++++++++


 Reference energy                     -79.12045665
 Nuclear energy                        30.36846879
 Kinetic energy                        79.15501333
 One electron energy                 -165.07398928
 Two electron energy                   55.31627865
 Virial quotient                       -1.00295911
 Correlation energy                    -0.26878519
 !RSPT2 STATE 1.1 Energy              -79.389241838334

 Properties without orbital relaxation:

 !RSPT2 STATE 1.1 Dipole moment         0.00004139     0.00005394    -0.00015683
 Dipole moment /Debye                   0.00010521     0.00013711    -0.00039862


 **********************************************************************************************************************************
 DATASETS  * FILE   NREC   LENGTH (MB)   RECORD NAMES
              1      19       30.97       500      610      700      900      950      970     1000      129      960     1100   
                                          VAR    BASINP    GEOM    SYMINP    ZMAT    AOBASIS   BASIS     P2S    ABASIS      S 
                                         1400     1410     1200     1210     1080     1600     1650     1700     1380   
                                           T        V       H0       H01     AOSYM     SMH    MOLCAS    OPER     JKOP   

              2       4        0.54       700     1000      520     2140   
                                         GEOM     BASIS   MCVARS    MCSCF   

 PROGRAMS   *        TOTAL       RS2     MULTI       INT
 CPU TIMES  *         1.04      0.14      0.46      0.29
 REAL TIME  *         2.45 SEC
 DISK USED  *        31.56 MB (local),      147.15 MB (total)
 SF USED    *         8.81 MB
 GA USED    *         0.00 MB       (max)       0.00 MB       (current)
 **********************************************************************************************************************************
 SETTING CBSEN          =       -79.38924184  AU                              

 Dump information in style MOLDEN to molpro.molden                                                                   

 Molecular orbitals read from record     2140.2  Type=MCSCF/NATURAL (state 1.1)
 Occupation numbers read from record     2140.2  Type=MCSCF/NATURAL (state 1.1)
 Orbital energies read from record       2140.2  Type=MCSCF/NATURAL (state 1.1)
 Redundancy group numbers read from rec  2140.2  Type=MCSCF/NATURAL (state 1.1)

 DUMP ORBITAL  1.1 AS ORBITAL    1  occ=    2.0000  eig=  -11.2276  GROUP=   2
 DUMP ORBITAL  2.1 AS ORBITAL    2  occ=    2.0000  eig=  -11.2276  GROUP=   2
 DUMP ORBITAL  3.1 AS ORBITAL    3  occ=    2.0000  eig=   -0.8982  GROUP=   2
 DUMP ORBITAL  4.1 AS ORBITAL    4  occ=    2.0000  eig=   -0.8950  GROUP=   2
 DUMP ORBITAL  5.1 AS ORBITAL    5  occ=    2.0000  eig=   -0.5692  GROUP=   2
 DUMP ORBITAL  6.1 AS ORBITAL    6  occ=    2.0000  eig=   -0.5691  GROUP=   2
 DUMP ORBITAL  7.1 AS ORBITAL    7  occ=    2.0000  eig=   -0.5672  GROUP=   2
 DUMP ORBITAL  8.1 AS ORBITAL    8  occ=    2.0000  eig=   -0.5671  GROUP=   2
 DUMP ORBITAL  9.1 AS ORBITAL    9  occ=    1.1779  eig=   -0.1312  GROUP=   3
 DUMP ORBITAL 10.1 AS ORBITAL   10  occ=    0.8221  eig=   -0.0697  GROUP=   3

 Total charge:      18.000000

 **********************************************************************************************************************************

 RS2/cc-pVDZ energy=    -79.389241838334

             RS2           MULTI
    -79.38924184    -79.12045665
 **********************************************************************************************************************************
 Molpro calculation terminated
