[Molden Format]
[Molpro variables]
_NUMVAR=  1056.000000000000    
_AVOGAD= 0.6022140760000000E+24
_BOLTZ= 0.1380649000000000E-22
_CLIGHTSI=  299792458.0000000    
_JOULE= 0.4359744722207100E-17
_JPCAL=  4.184000000000000    
_PLANCK= 0.6626070150000000E-33
_BOHR= 0.5291772109030000E-10
_ECHARG= 0.1602176634000000E-18
_ENULL= 0.8854187812800001E-11
_MU= 0.1660539066600000E-26
_EMASS= 0.9109383701500001E-30
_AMU2AU=  1822.888486217313    
_CLIGHT=  29979245800.00000    
_EV= 0.3674932217565494E-01
_KJOULE= 0.3808798847133432E-03
_KJOULE/MOL= 0.3808798847133432E-03
_CM= 0.4556335252912009E-05
_CM-1= 0.4556335252912009E-05
_DEB2SI= 0.3335640951981520E-29
_KCAL= 0.1593601437640628E-02
_KCAL/MOL= 0.1593601437640628E-02
_KELVIN= 0.3166811563455608E-05
_HERTZ= 0.1519829846057038E-15
_HZ= 0.1519829846057038E-15
_TOA= 0.5291772109030000    
_TOANG= 0.5291772109030000    
_TORAD= 0.1745329251994330E-01
_TOCM=  219474.6313631965    
_TODEBYE=  2.541746473194078    
_TOE= 0.4803204712570263E-09
_TOEV=  27.21138624598803    
_TOHERTZ=  6579683920501656.    
_TOHZ=  6579683920501656.    
_TOK=  315775.0248040668    
_TOKCAL=  627.5094740630558    
_TOKELVIN=  315775.0248040668    
_TOKJ=  2625.499639479825    
_TOKJOULE=  2625.499639479825    
_TOKG= 0.1660539066600000E-26
_ANG=  1.889726124625770    
_ANGSTROM=  1.889726124625770    
_RPAREF=  0.000000000000000    
_RPADISS=  0.000000000000000    
_IGNORE_UNDEF=  2.000000000000000    
_STRICTCHECK=  0.000000000000000    
!SEWARD=  0.000000000000000    
!MULTI=  0.000000000000000    
!DFMULTI=  0.000000000000000    
_SEW_ONEEL=  0.000000000000000    
_CPPDONE=FALSE
_DKROLL_DONE=  0.000000000000000    
_FNUC_DONE=  0.000000000000000    
_FOCKDONE=  0.000000000000000    
_GRADONE=FALSE
_HESSDONE=FALSE
_INTDONE=TRUE
_SCFDONE=FALSE
_MODUL_BLOCK=FALSE
_MODUL_CUDA=FALSE
_MODUL_SLATER=FALSE
_MODUL_MRCC=TRUE
_MODUL_NBO6=FALSE
_MODUL_NECI=FALSE
_MODUL_AIMS=TRUE
_MODUL_GECCO=FALSE
_ISWINDOWS=FALSE
_MRCC_EXEC=/software/cinetica/mrcc/bin/dmrcc
_FITC_AO_SAVED=FALSE
_FITC_MO_SAVED=FALSE
_SHARED_FS=TRUE
_LSTYP=SEWARD
_INTYP=INTS
_GEOMTYP=ZMAT
_GRADTYP=ALASKA
_DIRECT=FALSE
_DKHO= -1.000000000000000    
_FNUC=  0.000000000000000    
_SYNCM=  0.000000000000000    
_BASIS=CC-PVDZ
_ZORIENT=  1.000000000000000    
!ZORIENT=  0.000000000000000    
_NELEC=  18.00000000000000    
!SPIN=  0.000000000000000    
_QSDSTEP=  0.000000000000000    
_QSDIRC=  0.000000000000000    
_PROGRAM=RS2
_CPUSTEP= 0.1400000000000001    
_SYSSTEP= 0.5999999999999994E-01
_WALLSTEP= 0.4900000000000000    
!DFMP2=  0.000000000000000    
!DFHFENERG=  0.000000000000000    
!SCSGRD=  0.000000000000000    
_CPUTOT=  1.040000000000000    
_DMX= 0.4139462720761152E-04
_DMY= 0.5394152352998591E-04
_DMZ=-0.1568292056954067E-03
_EMP2= -79.38924183833402    
_ENERGR= -79.12045665077278    
_ENERGU= -79.37262961043646    
_ENERGY= -79.38924183833402    
_ENERGY_METHOD=RS2
_ENERGY_BASIS=cc-pVDZ
_GEOMETRY_METHOD=
_GEOMETRY_BASIS=
_ENERGY_AVRG= -79.12045665077278    
_ENUC=  30.36846879157334    
_GRADMETHOD=  9.000000000000000    
_NMRMETHOD=  0.000000000000000    
_NMRMAGNET=  0.000000000000000    
!GRID_FREEZE= -1.000000000000000    
!NEESE_INDEX=  0.000000000000000    
_ITERATIONS=  4.000000000000000    
_LASTNELEC=  2.000000000000000    
_LASTSPIN=  0.000000000000000    
_LASTSYM=  1.000000000000000    
_MPP_PROG=  1.000000000000000    
_MSNSTATES=  0.000000000000000    
_RS2PHASE=  0.000000000000000    
_IPROC_MPP=  0.000000000000000    
_IPROC_MPPX=  0.000000000000000    
_NPROC_MPP=  4.000000000000000    
_NPROC_MPPX=  4.000000000000000    
_NPROC_SMP=  1.000000000000000    
_NUMSTEP=  0.000000000000000    
_ORBITAL=  2140.200000000000    
_PI=  3.141592653589793    
!MCACT=  2.000000000000000    
!MCCLOSED=  8.000000000000000    
!MCFREEZE=  0.000000000000000    
!MCMS2=  0.000000000000000    
!MCNEL=  2.000000000000000    
!MCNSTSYM=  1.000000000000000    
!MCSTATE=  1.000000000000000    
!MCSYM=  1.000000000000000    
!MCWEIGHT=  1.000000000000000    
_SEIG_MIN= 0.1468381465927288E-01
_SEWPROP=TRUE
_STATUS=  1.000000000000000    
_SYSTOT= 0.4399999999999999    
_VERSION=  2022002.000000000    
_WALLTOT=  2.450000000000000    
_DATE=27-May-23
_LASTORB=MCSCF
_OUTPUT=/home/chimica2/cavallotti/qm/barrierless/vrc_autom/folders/ch3+ch3/dist_3.8/molpro.out
_PGROUP=C1
_TIME=09:31:37
_LIBMOL=/software/cinetica/molpro_2022.2/lib/
_VIGRDC=  0.000000000000000    
!VIBCNT=  0.000000000000000    
!RGHFCNT=  0.000000000000000    
!SURFREC=  0.000000000000000    
!XSURFREC=  0.000000000000000    
!XPOLYREC=  0.000000000000000    
!ROTREC=  0.000000000000000    
!POLYREC=  0.000000000000000    
!DIPREC=  0.000000000000000    
!DIP4DREC=  0.000000000000000    
!DIPROT=  0.000000000000000    
!DIP4DROT=  0.000000000000000    
!PTREC=  0.000000000000000    
!PT4DREC=  0.000000000000000    
!VSCFREC=  0.000000000000000    
!VCIREC=  0.000000000000000    
!PVCIREC=  0.000000000000000    
!VMP2REC=  0.000000000000000    
!VMCSCFREC=  0.000000000000000    
!VMRCIREC=  0.000000000000000    
!VIBSTATEREC=  0.000000000000000    
!VIBSTATECNT=  0.000000000000000    
!VIBINFO=  0.000000000000000    
!GAREC=  0.000000000000000    
!MCORB=  21402.00000000000    
!DEFCORE=  2.000000000000000    
!SCORE=  0.000000000000000    
!NEWMOL= -1.000000000000000    
!NEWSYM= -1.000000000000000    
_SLFILES=slscratch
_NGSSTO=  9.000000000000000    
_SIN=SIN
_COS=COS
_TAN=TAN
_ACOS=ACOS
_ASIN=ASIN
_ATAN=ATAN
_COSH=COSH
_SINH=SINH
_TANH=TANH
_ABS=ABS
_MOD=MOD
_ERF=ERF
_REFC=REFC
_ERFC=ERFC
_HYPOT=HYPOT
_J0=J0
_J1=J1
_JN=JN
_GAMMA=GAMMA
_LGAMMA=LGAMMA
_Y0=Y0
_Y1=Y1
_YN=YN
_EXP=EXP
_LOG=LOG
_LOG10=LOG10
_SQRT=SQRT
_INT=INT
_NINT=NINT
_MAX=MAX
_MIN=MIN
_COSMO=  0.000000000000000    
_COSMOIT=  0.000000000000000    
_COSMOES=  0.000000000000000    
_COSMOEDS=  0.000000000000000    
_COSMOEC=  0.000000000000000    
_COSMOEDCORR=  0.000000000000000    
_FEPSI=  1.000000000000000    
_SL_IsMM=  0.000000000000000    
_SL_NSYM=  1.000000000000000    
_SL_System_BitSw=  0.000000000000000    
_SL_Unique_atoms=  0.000000000000000    
_SL_GRAD=  0.000000000000000    
_SL_MAXUPD_Hess=  5.000000000000000    
_SL_N_PRINT_COD=  5.000000000000000    
_SL_PRINT_CODES=  0.000000000000000    
_SL_BasType=  0.000000000000000    
_SL_Energy_Pred=  0.000000000000000    
_SL_New_Coords=  0.000000000000000    
_SL_Total_Nuclea=  0.000000000000000    
_SL_Highest_Mltp=  0.000000000000000    
_SL_Ref_Geom=  0.000000000000000    
_SL_Symmetry_ope=  1.000000000000000    
_SL_agrad=  0.000000000000000    
_SL_GrdMax=  0.000000000000000    
_SL_GrdNorm=  0.000000000000000    
_SL_GrdRMS=  0.000000000000000    
_SL_Hss_Q=  0.000000000000000    
_SL_Hss_X=  0.000000000000000    
_SL_BMxOld=  0.000000000000000    
_SL_KtB=  0.000000000000000    
_SL_TROld=  0.000000000000000    
_SL_No_of_Intern=  0.000000000000000    
_SL_Hess=  0.000000000000000    
_SL_K=  0.000000000000000    
!LATTICE= -1.000000000000000    
!NEWLATTICE=  0.000000000000000    
!LATGRAD_VAR=FALSE
!SEW_LATTICE=  1.000000000000000    
!AIC_ONEEL=  0.000000000000000    
!LOCAL=  0.000000000000000    
!SAVEDOM= -1.000000000000000    
!RESTDOM= -1.000000000000000    
!SAVEDOM_HF= -1.000000000000000    
!RESTDOM_HF= -1.000000000000000    
!HESSREC=  0.000000000000000    
!FREQREC=  0.000000000000000    
!NMODREC=  0.000000000000000    
!GTASKS=  0.000000000000000    
!HTASKS=  0.000000000000000    
!SAVEDOM_EOM= -1.000000000000000    
!RESTDOM_EOM= -1.000000000000000    
!GRADSTATE= -1.000000000000000    
!DEBUG=  0.000000000000000    
!CFIT_CPHF=  0.000000000000000    
!RDOMAUX_CPHF=  0.000000000000000    
!THRAO_CPHF= 0.1000000000000000E-11
!THRMO_CPHF= 0.1000000000000000E-11
!THROV_CPHF= 0.1000000000000000E-11
!THRSW_CPHF= 0.1000000000000000E-11
!THRPROD_CPHF= 0.1000000000000000E-11
!THRAOPR_CPHF= 0.1000000000000000E-11
!CFIT_SCFGRD=  0.000000000000000    
!RDOMAUX_SCFGRD=  0.000000000000000    
!THRAO_SCFGRD= 0.1000000000000000E-11
!THRMO_SCFGRD= 0.1000000000000000E-11
!THROV_SCFGRD= 0.1000000000000000E-11
!THRSW_SCFGRD= 0.1000000000000000E-11
!THRPROD_SCFGRD= 0.1000000000000000E-11
!THRAOPR_SCFGRD= 0.1000000000000000E-11
!LOCFIT_SCF=  0.000000000000000    
!LOCFIT_MP2=  0.000000000000000    
_RIDOM=  0.000000000000000    
!CC2_METHOD=  0.000000000000000    
_BASIS2006=FALSE
_SVDDEL= -1.000000000000000    
_SVDDELA= -1.000000000000000    
_SVDDELP= -1.000000000000000    
_SVDDELF= -1.000000000000000    
_SVDDELS= -1.000000000000000    
_SVDDEL_ABS= -1.000000000000000    
_SVDDELA_ABS= -1.000000000000000    
_SVDDELP_ABS= -1.000000000000000    
_SVDDELF_ABS= -1.000000000000000    
_SVDDELS_ABS= -1.000000000000000    
_MAXBASIS=  0.000000000000000    
!OPT_CONICAL=  0.000000000000000    
!CLEARSP_JGRID=  0.000000000000000    
_GRDHYBR=  0.000000000000000    
_STATEGRAD=  1.000000000000000    
_4EXT_NDISKS=  1.000000000000000    
!EMBEDFLAG=  1.000000000000000    
!EMBED=FALSE
!EMBED_F12=FALSE
!EMBEDNUC=  0.000000000000000    
_EMBEDENERGY=  0.000000000000000    
!EMBED_DFC=FALSE
!NUM_VOIDS=  0.000000000000000    
_IBODY=  0.000000000000000    
_EMBE_CORR=  0.000000000000000    
!EMBED_PROJ=FALSE
!EMB_PROJ_ZMU=  1000000.000000000    
!CORRECTION_HF=  0.000000000000000    
!EMBED_AORB=  0.000000000000000    
!EMBED_NACORR=  0.000000000000000    
!EMBED_MP2=FALSE
!EMBED_TRUNC_PERTURBATION=FALSE
!EMBED_FROZEN=  0.000000000000000    
!EMBED_ACTIVE=  0.000000000000000    
_CHANGE_BASIS=FALSE
_RESTORE_BASIS=FALSE
_FIX_EMBED_GUESS=FALSE
_EMBED_SCF=FALSE
_HUZINAGA_T=FALSE
_HUZINAGA_F=FALSE
_HUZINAGA=FALSE
_HUZINAGA_CORRECT=FALSE
!FASTLATGRAD=  1.000000000000000    
!FASTVLAMBDA= -1.000000000000000    
!IFORCE= -1.000000000000000    
!USESYM= -1.000000000000000    
_SINDEX=  0.000000000000000    
_AVDOM_OSV=  0.000000000000000    
_AVDOM_PNO=  0.000000000000000    
_AVDOM_PAO=  0.000000000000000    
_AVDOM_LMO=  0.000000000000000    
_CC2OSV_FLAG=  0.000000000000000    
_EOMCCSD_CONV=FALSE
_TMADC2_FLAG=FALSE
_PROPADC2_FLAG=FALSE
_LEN_VirQ=  0.000000000000000    
_GRDCC2LR_FLAG=FALSE
_GRDADC2_FLAG=FALSE
_DMX_CC=-0.5227797170291870E-03
_DMY_CC=-0.6670251891831569E-03
_DMZ_CC= 0.6793600148711221E-03
_DMX_NUC= 0.4269768939997309E-03
_DMY_NUC= 0.5608563590002724E-03
_DMZ_NUC=-0.4134483700006797E-03
_RO_VGLOBAL=  0.000000000000000    
_OPT=FALSE
_FREQ=FALSE
_HESS=FALSE
_CMRCC_callName=EMPTY
_CMRCC_callCount=  0.000000000000000    
_GECCO_CIROOT=  1.000000000000000    
_SYM_CATION=  0.000000000000000    
_MON_A=FALSE
_MON_B=FALSE
R1=  1.078200000000000    
R2=  1.078200000000000    
R3=  1.078200000000000    
A2=  119.9772000000000    
A3=  120.0236000000000    
D3=  180.4174000000000    
R21=  1.078200000000000    
R22=  1.078200000000000    
R23=  1.078200000000000    
A22=  119.9618000000000    
A23=  120.0271000000000    
D23=  179.6163000000000    
ANG2=  90.06870000000001    
DH3=  89.61260000000000    
DH2=  59.56890000000000    
DH1=  89.76800000000000    
ANG1=  90.10070000000000    
BB=  3.800000000000000    
GX1= 0.2118071641129444E-03
GY1=-0.4927023623742385E-03
GZ1= -3.590444659648436    
GX2=-0.3268952864301342    
GY2=  2.010577507006678    
GZ2= -3.594297667545630    
GX3=  1.905676798709266    
GY3=-0.7219749285433117    
GZ3= -3.581287877351098    
GX4= -1.577225763762697    
GY4= -1.289980398254061    
GZ4= -3.608596115063631    
GX5=-0.2839757220613284E-03
GY5= 0.3979052087654047E-03
GZ5=  3.590514541586612    
GX6= -1.899989485380573    
GY6= 0.7369651656401957    
GZ6=  3.592735080900560    
GX7=  1.586576157862305    
GY7=  1.278332898842695    
GZ7=  3.577310305612166    
GX8= 0.3127175672447018    
GY8= -2.012790605416052    
GZ8=  3.613303533443836    
CBSEN= -79.38924183833402    
[Atoms] Angs
C     1    6         0.0001120835       -0.0002607269       -1.8999814909
H     2    1        -0.1729855359        1.0639517975       -1.9020204149
H     3    1         1.0084407332       -0.3820526790       -1.8951359304
H     4    1        -0.8346319306       -0.6826282293       -1.9095868274
C     5    6        -0.0001502735        0.0002105624        1.9000184708
H     6    1        -1.0054311366        0.3899851709        1.9011935296
H     7    1         0.8395799461        0.6764646380        1.8930310901
H     8    1         0.1654830100       -1.0651229187        1.9120778860
[GTO]
   1 0
 s    9  1.00
  0.6665000000D+04  0.6920001793D-03
  0.1000000000D+04  0.5329001381D-02
  0.2280000000D+03  0.2707700701D-01
  0.6471000000D+02  0.1017180264D+00
  0.2106000000D+02  0.2747400712D+00
  0.7495000000D+01  0.4485641162D+00
  0.2797000000D+01  0.2850740738D+00
  0.5215000000D+00  0.1520400394D-01
  0.1596000000D+00 -0.3191000827D-02
 s    9  1.00
  0.6665000000D+04 -0.1460000642D-03
  0.1000000000D+04 -0.1154000508D-02
  0.2280000000D+03 -0.5725002519D-02
  0.6471000000D+02 -0.2331201026D-01
  0.2106000000D+02 -0.6395502813D-01
  0.7495000000D+01 -0.1499810660D+00
  0.2797000000D+01 -0.1272620560D+00
  0.5215000000D+00  0.5445292395D+00
  0.1596000000D+00  0.5804962554D+00
 s    9  1.00
  0.6665000000D+04  0.0000000000D+00
  0.1000000000D+04  0.0000000000D+00
  0.2280000000D+03  0.0000000000D+00
  0.6471000000D+02  0.0000000000D+00
  0.2106000000D+02  0.0000000000D+00
  0.7495000000D+01  0.0000000000D+00
  0.2797000000D+01  0.0000000000D+00
  0.5215000000D+00  0.0000000000D+00
  0.1596000000D+00  0.1000000000D+01
 p    4  1.00
  0.9439000000D+01  0.3810902127D-01
  0.2002000000D+01  0.2094801169D+00
  0.5456000000D+00  0.5085572839D+00
  0.1517000000D+00  0.4688422617D+00
 p    4  1.00
  0.9439000000D+01  0.0000000000D+00
  0.2002000000D+01  0.0000000000D+00
  0.5456000000D+00  0.0000000000D+00
  0.1517000000D+00  0.1000000000D+01
 d    1  1.00
  0.5500000000D+00  0.1000000000D+01
  
   2 0
 s    4  1.00
  0.1301000000D+02  0.1968498999D-01
  0.1962000000D+01  0.1379769298D+00
  0.4446000000D+00  0.4781477569D+00
  0.1220000000D+00  0.5012397451D+00
 s    4  1.00
  0.1301000000D+02  0.0000000000D+00
  0.1962000000D+01  0.0000000000D+00
  0.4446000000D+00  0.0000000000D+00
  0.1220000000D+00  0.1000000000D+01
 p    1  1.00
  0.7270000000D+00  0.1000000000D+01
  
   3 0
 s    4  1.00
  0.1301000000D+02  0.1968498999D-01
  0.1962000000D+01  0.1379769298D+00
  0.4446000000D+00  0.4781477569D+00
  0.1220000000D+00  0.5012397451D+00
 s    4  1.00
  0.1301000000D+02  0.0000000000D+00
  0.1962000000D+01  0.0000000000D+00
  0.4446000000D+00  0.0000000000D+00
  0.1220000000D+00  0.1000000000D+01
 p    1  1.00
  0.7270000000D+00  0.1000000000D+01
  
   4 0
 s    4  1.00
  0.1301000000D+02  0.1968498999D-01
  0.1962000000D+01  0.1379769298D+00
  0.4446000000D+00  0.4781477569D+00
  0.1220000000D+00  0.5012397451D+00
 s    4  1.00
  0.1301000000D+02  0.0000000000D+00
  0.1962000000D+01  0.0000000000D+00
  0.4446000000D+00  0.0000000000D+00
  0.1220000000D+00  0.1000000000D+01
 p    1  1.00
  0.7270000000D+00  0.1000000000D+01
  
   5 0
 s    9  1.00
  0.6665000000D+04  0.6920001793D-03
  0.1000000000D+04  0.5329001381D-02
  0.2280000000D+03  0.2707700701D-01
  0.6471000000D+02  0.1017180264D+00
  0.2106000000D+02  0.2747400712D+00
  0.7495000000D+01  0.4485641162D+00
  0.2797000000D+01  0.2850740738D+00
  0.5215000000D+00  0.1520400394D-01
  0.1596000000D+00 -0.3191000827D-02
 s    9  1.00
  0.6665000000D+04 -0.1460000642D-03
  0.1000000000D+04 -0.1154000508D-02
  0.2280000000D+03 -0.5725002519D-02
  0.6471000000D+02 -0.2331201026D-01
  0.2106000000D+02 -0.6395502813D-01
  0.7495000000D+01 -0.1499810660D+00
  0.2797000000D+01 -0.1272620560D+00
  0.5215000000D+00  0.5445292395D+00
  0.1596000000D+00  0.5804962554D+00
 s    9  1.00
  0.6665000000D+04  0.0000000000D+00
  0.1000000000D+04  0.0000000000D+00
  0.2280000000D+03  0.0000000000D+00
  0.6471000000D+02  0.0000000000D+00
  0.2106000000D+02  0.0000000000D+00
  0.7495000000D+01  0.0000000000D+00
  0.2797000000D+01  0.0000000000D+00
  0.5215000000D+00  0.0000000000D+00
  0.1596000000D+00  0.1000000000D+01
 p    4  1.00
  0.9439000000D+01  0.3810902127D-01
  0.2002000000D+01  0.2094801169D+00
  0.5456000000D+00  0.5085572839D+00
  0.1517000000D+00  0.4688422617D+00
 p    4  1.00
  0.9439000000D+01  0.0000000000D+00
  0.2002000000D+01  0.0000000000D+00
  0.5456000000D+00  0.0000000000D+00
  0.1517000000D+00  0.1000000000D+01
 d    1  1.00
  0.5500000000D+00  0.1000000000D+01
  
   6 0
 s    4  1.00
  0.1301000000D+02  0.1968498999D-01
  0.1962000000D+01  0.1379769298D+00
  0.4446000000D+00  0.4781477569D+00
  0.1220000000D+00  0.5012397451D+00
 s    4  1.00
  0.1301000000D+02  0.0000000000D+00
  0.1962000000D+01  0.0000000000D+00
  0.4446000000D+00  0.0000000000D+00
  0.1220000000D+00  0.1000000000D+01
 p    1  1.00
  0.7270000000D+00  0.1000000000D+01
  
   7 0
 s    4  1.00
  0.1301000000D+02  0.1968498999D-01
  0.1962000000D+01  0.1379769298D+00
  0.4446000000D+00  0.4781477569D+00
  0.1220000000D+00  0.5012397451D+00
 s    4  1.00
  0.1301000000D+02  0.0000000000D+00
  0.1962000000D+01  0.0000000000D+00
  0.4446000000D+00  0.0000000000D+00
  0.1220000000D+00  0.1000000000D+01
 p    1  1.00
  0.7270000000D+00  0.1000000000D+01
  
   8 0
 s    4  1.00
  0.1301000000D+02  0.1968498999D-01
  0.1962000000D+01  0.1379769298D+00
  0.4446000000D+00  0.4781477569D+00
  0.1220000000D+00  0.5012397451D+00
 s    4  1.00
  0.1301000000D+02  0.0000000000D+00
  0.1962000000D+01  0.0000000000D+00
  0.4446000000D+00  0.0000000000D+00
  0.1220000000D+00  0.1000000000D+01
 p    1  1.00
  0.7270000000D+00  0.1000000000D+01


[MO]
 Sym=      1.1
 Ene=     -11.2276
 Spin= Alpha
 Occup=    2.000000
1 0.98717544369001
2 0.007854630269947
3 -0.007843675585258
4 -0.000000225155749
5 0.000000235854794
6 -0.000001764666123
7 -0.000000165811098
8 -0.000000224928857
9 -0.000008014538053
10 0.000359744242306
11 0.000360404531172
12 -0.000720148773478
13 0.000000808802732
14 0.000009437145942
15 0.000001803294091
16 -0.000685857439421
17 0.001569811636356
18 -0.000082951898007
19 0.000507896815286
20 -0.000002547425775
21 -0.000684915849257
22 0.001569425823798
23 0.000480901308273
24 -0.000182233561030
25 0.000000729544728
26 -0.000686833482818
27 0.001570649172172
28 -0.000398616186101
29 -0.000325591372087
30 -0.000006137942233
31 0.16799513482566
32 0.001228927557431
33 -0.001108634676441
34 0.000000277764653
35 0.000000429301174
36 0.000071017459834
37 -0.000000302238375
38 0.000000705624051
39 -0.000155524996888
40 0.000070503220900
41 0.000070074817795
42 -0.000140578038695
43 0.000000109577601
44 -0.000000683464851
45 -0.000002556382434
46 -0.000185933490646
47 0.000286945839928
48 -0.000090254419571
49 0.000034909313424
50 0.000025578969506
51 -0.000186082574443
52 0.000285858905698
53 0.000075689144504
54 0.000060825247969
55 0.000024934342712
56 -0.000183210241525
57 0.000285364446751
58 0.000014864558487
59 -0.000095388141812
60 0.000026483642047
 Sym=      2.1
 Ene=     -11.2276
 Spin= Alpha
 Occup=    2.000000
1 0.16805347389667
2 0.001451327970562
3 -0.001574965410200
4 -0.000000471704146
5 -0.000000202776938
6 0.000074763256689
7 -0.000000466183868
8 0.000000531835468
9 -0.000167699469461
10 0.000051464579994
11 0.000052018032800
12 -0.000103482612794
13 0.000000410237304
14 0.000001227979040
15 0.000000335533006
16 -0.000045376417187
17 0.000248497397788
18 -0.000012559944343
19 0.000076721751047
20 0.000026335460144
21 -0.000042502511627
22 0.000246412090899
23 0.000072463160864
24 -0.000027531728058
25 0.000026858153326
26 -0.000045215168633
27 0.000246984979519
28 -0.000060476955159
29 -0.000049464213022
30 0.000025693545645
31 -0.98718537193230
32 -0.007892480631053
33 0.007923030660662
34 -0.000000000296634
35 0.000000526770680
36 0.000024059932320
37 0.000000001071350
38 0.000000491169089
39 -0.000063702662981
40 -0.000355863655311
41 -0.000357925797774
42 0.000713789453085
43 0.000000809350220
44 0.000003560598775
45 0.000012023009609
46 0.000661284478053
47 -0.001563016312516
48 0.000476763498061
49 -0.000184339195508
50 0.000006792364368
51 0.000660343290174
52 -0.001562596924556
53 -0.000398156971734
54 -0.000320196915024
55 0.000010673427968
56 0.000664148111114
57 -0.001564487959234
58 -0.000078491664022
59 0.000505720108768
60 0.000001623816607
 Sym=      3.1
 Ene=      -0.8982
 Spin= Alpha
 Occup=    2.000000
1 -0.019882970403218
2 0.53312639572791
3 -0.10439613827808
4 0.000044278412725
5 0.000013495520240
6 0.000349890578152
7 -0.000036069496332
8 -0.000000948693534
9 0.000528042955185
10 0.001067237147248
11 0.001067633029875
12 -0.002134870177123
13 -0.000000972911107
14 0.000028479162214
15 0.000006060607232
16 0.24758228986317
17 -0.10192176648641
18 0.003243876939695
19 -0.019925605183230
20 0.000025847472474
21 0.24759459873972
22 -0.10191093073005
23 -0.018879220956048
24 0.007150199774962
25 -0.000102880850625
26 0.24754763282477
27 -0.10192516703580
28 0.015629822812097
29 0.012775035746784
30 0.000165947115111
31 -0.019863581186791
32 0.53260593743936
33 -0.10429609341538
34 0.000014630365584
35 0.000060124030815
36 -0.000408412336471
37 -0.000006027294640
38 -0.000051160912652
39 -0.000516456743623
40 0.001066786440203
41 0.001065360663536
42 -0.002132147103739
43 0.000000738957770
44 -0.000011303825033
45 -0.000036553306070
46 0.24733372679045
47 -0.10181577661594
48 0.018805486721750
49 -0.007287122629439
50 -0.000010382927215
51 0.24736379351598
52 -0.10181045279671
53 -0.015709568294451
54 -0.012648072258320
55 0.000140904078154
56 0.24730226864514
57 -0.10183053514512
58 -0.003096815115212
59 0.019927338420650
60 -0.000213201546411
 Sym=      4.1
 Ene=      -0.8950
 Spin= Alpha
 Occup=    2.000000
1 -0.019780802011406
2 0.53531676696536
3 -0.10356031505884
4 0.000030469822902
5 0.000006729003025
6 -0.003296389253738
7 -0.000006389506045
8 0.000002313471112
9 -0.000862812780736
10 0.001388028116865
11 0.001387311357982
12 -0.002775339474847
13 -0.000000280025758
14 0.000032988564407
15 0.000007543787231
16 0.24874419312349
17 -0.10347808962721
18 0.003223586513722
19 -0.019806960054957
20 -0.000075839840788
21 0.24872356335090
22 -0.10347591146213
23 -0.018763625322511
24 0.007105963751906
25 -0.000206725990171
26 0.24874947577363
27 -0.10347232003056
28 0.015539013466605
29 0.012701492478821
30 0.000066186260931
31 0.019800192960337
32 -0.53583523691820
33 0.10366172535506
34 -0.000006191148514
35 -0.000043532286142
36 -0.003235394403999
37 -0.000003947673502
38 0.000012230511606
39 -0.000871755685667
40 -0.001389476594843
41 -0.001387784521358
42 0.002777261116201
43 -0.000000022079912
44 0.000013482389241
45 0.000042276961230
46 -0.24897641507898
47 0.10357182438022
48 -0.018728905243160
49 0.007258830591031
50 -0.000091843875011
51 -0.24896352597345
52 0.10357690771285
53 0.015642444927779
54 0.012595028511429
55 -0.000245569504341
56 -0.24899761250809
57 0.10357306226354
58 0.003085602436778
59 -0.019851792660691
60 0.000114652978261
 Sym=      5.1
 Ene=      -0.5692
 Spin= Alpha
 Occup=    2.000000
1 0.000004118074583
2 -0.000108060338211
3 -0.000025007945447
4 0.032754360661797
5 0.44687104829391
6 0.000930223068919
7 -0.006228046065595
8 -0.084940816529357
9 -0.000168423155484
10 -0.012243942344549
11 0.012239388454148
12 0.000004553890402
13 -0.008813059858788
14 -0.000137970871974
15 -0.000214160425482
16 0.43476172834809
17 -0.12193093661607
18 0.004515687822109
19 -0.014845184015032
20 0.000042606204934
21 -0.12740142683311
22 0.035713215134740
23 0.007247848187671
24 0.006411542063511
25 0.000055343477206
26 -0.30749195108681
27 0.086327211006158
28 -0.012523817000013
29 -0.001863175523670
30 -0.000109827135263
31 0.000006047427247
32 -0.000070672203808
33 -0.000044401170160
34 0.014646511155181
35 0.45411881397713
36 -0.004481826174942
37 -0.002781531605462
38 -0.086321986222270
39 0.000867742454116
40 0.012873804256830
41 -0.012869260717434
42 -0.000004543539396
43 0.008020181644348
44 -0.000121714304134
45 0.000289414543118
46 0.15002452336960
47 -0.042148038897094
48 0.008035309911461
49 0.006050594226958
50 -0.000085572863604
51 0.29550559200375
52 -0.082882265036611
53 -0.012447579760280
54 -0.001207706764807
55 0.000030912315796
56 -0.44550989064756
57 0.12503481256618
58 0.004080274549638
59 -0.015311793953260
60 0.000155942856935
 Sym=      6.1
 Ene=      -0.5691
 Spin= Alpha
 Occup=    2.000000
1 0.000004618832019
2 -0.000056246716730
3 -0.000033637500924
4 0.45473725734749
5 -0.014514419656241
6 0.003426263306563
7 -0.086401798598622
8 0.002762365594103
9 -0.000661772221093
10 0.007240410599852
11 -0.007237978672183
12 -0.000002431927670
13 -0.014710745658809
14 -0.000133127378308
15 -0.000123708802570
16 -0.087248862331157
17 0.024422647977726
18 0.008289455926397
19 0.004476462785930
20 0.000061000000223
21 0.42942022527290
22 -0.12046240354654
23 -0.013161486197318
24 0.008126484858663
25 -0.000063803499687
26 -0.34216853398010
27 0.096052906892748
28 -0.005594928352398
29 -0.012274029588472
30 -0.000073906005051
31 0.000003508028049
32 -0.000076411330481
33 -0.000021934345527
34 0.44624516081742
35 -0.032926626754947
36 -0.000994073161732
37 -0.084787608797744
38 0.006251971484759
39 0.000184037267544
40 -0.007359974736620
41 0.007354605743883
42 0.000005368992737
43 0.014311031678842
44 0.000043499362285
45 -0.000141994145467
46 -0.42706934086227
47 0.11982371086969
48 -0.013141212079756
49 0.007889160576223
50 -0.000021542810955
51 0.32619430899940
52 -0.091428570758222
53 -0.005164580121732
54 -0.011980346498824
55 0.000110241929749
56 0.10077450932474
57 -0.028309709897155
58 0.008039065076503
59 0.004854190921501
60 -0.000073472688459
 Sym=      7.1
 Ene=      -0.5672
 Spin= Alpha
 Occup=    2.000000
1 -0.000004110543995
2 0.000066161813865
3 0.000016994984123
4 0.008008060825638
5 0.45653627792738
6 0.000693746780409
7 -0.001533248037775
8 -0.086399911573858
9 -0.000134900460735
10 -0.012936332275228
11 0.012945389701543
12 -0.000009057426315
13 -0.008197280096406
14 -0.000140085041562
15 -0.000509769181116
16 0.44856687400538
17 -0.12762787833989
18 0.004114733481229
19 -0.015273223565954
20 -0.000176477917017
21 -0.15389305130403
22 0.043723352921194
23 0.008066527213101
24 0.006055081924098
25 0.000127865501414
26 -0.29455282225025
27 0.083823163709212
28 -0.012371421162563
29 -0.001191270762098
30 0.000025176347139
31 0.000001582125478
32 0.000031899990509
33 -0.000020318157283
34 -0.026281255175447
35 -0.44898862919371
36 0.004456681284762
37 0.004955921275829
38 0.084987327208712
39 -0.000851737383097
40 -0.012609494811611
41 0.012601043087138
42 0.000008451724473
43 -0.008356843084763
44 0.000103911804436
45 -0.000577231537374
46 -0.13744772936244
47 0.039178658766575
48 -0.007562504013929
49 -0.006170554689262
50 0.000018173707278
51 -0.30150405524840
52 0.085787108909799
53 0.012379777680173
54 0.001490831344849
55 -0.000179201320857
56 0.43889603674464
57 -0.12489307256392
58 -0.004225257504704
59 0.014923615550108
60 0.000050009469624
 Sym=      8.1
 Ene=      -0.5671
 Spin= Alpha
 Occup=    2.000000
1 0.000001919811997
2 0.000005974929361
3 -0.000018792267455
4 -0.44841997089119
5 0.026101893368842
6 -0.003347765251191
7 0.084819736442090
8 -0.004912876295598
9 0.000640302131202
10 -0.007510012545115
11 0.007503194919876
12 0.000006817625239
13 0.014359165384991
14 0.000421155768518
15 0.000101066652638
16 0.097663420283041
17 -0.027741593697663
18 -0.008027144957427
19 -0.004776827784363
20 -0.000103944486258
21 -0.42785667159994
22 0.12177562474858
23 0.013090285138679
24 -0.007804675821247
25 0.000271402444436
26 0.33013344104163
27 -0.093966716819644
28 0.005149414883373
29 0.011994587661313
30 -0.000083028768697
31 -0.000003214039998
32 0.000052894627428
33 0.000014995139395
34 0.45715362247686
35 -0.008232233350995
36 -0.001219043732405
37 -0.086455364440013
38 0.001581474070189
39 0.000234606084172
40 -0.006826033315199
41 0.006831641442840
42 -0.000005608127641
43 0.015147217181477
44 0.000335493847144
45 -0.000136007376269
46 -0.42847414790839
47 0.12190810556974
48 -0.012882910696526
49 0.008345798003149
50 -0.000226373620380
51 0.35035226686653
52 -0.099672573712728
53 -0.005925948589471
54 -0.012232544492829
55 0.000287010198330
56 0.078215799143179
57 -0.022302803220622
58 0.008403634546378
59 0.004081421226760
60 -0.000026271425225
 Sym=      9.1
 Ene=      -0.1312
 Spin= Alpha
 Occup=    1.177868
1 0.000137334141019
2 -0.009602789006667
3 -0.007850517553370
4 -0.004767341490210
5 -0.000888567026165
6 0.61040210603661
7 -0.000629461314384
8 -0.000100725963036
9 0.080576151939316
10 -0.001017474464798
11 -0.001009155649435
12 0.002026630114233
13 0.000009133655086
14 -0.000014482834412
15 -0.000002341447430
16 -0.006786227930070
17 0.009452905432217
18 -0.000059717536953
19 -0.000290292072067
20 0.013793084415909
21 -0.006909882837013
22 0.009615822372179
23 -0.000363351939581
24 0.000078451555680
25 0.013803221924047
26 -0.006723760373884
27 0.009458150837980
28 0.000110839252914
29 0.000155445168620
30 0.013784898106258
31 0.000136820447062
32 -0.009747168102020
33 -0.007914314354623
34 -0.001803689271065
35 -0.006157451403271
36 -0.61038600185328
37 -0.000225365471238
38 -0.000816695650147
39 -0.080576320296705
40 -0.001018597154492
41 -0.000999111534981
42 0.002017708689473
43 -0.000008339761597
44 0.000005838186304
45 0.000018085878881
46 -0.006783481611632
47 0.009563371534196
48 0.000221523545102
49 -0.000234996697099
50 -0.013795005342784
51 -0.006865754344870
52 0.009591672410107
53 -0.000256133762194
54 -0.000308104540195
55 -0.013804945017411
56 -0.006612784051998
57 0.009366423168558
58 -0.000082154766430
59 0.000139413719493
60 -0.013780796670006
 Sym=     10.1
 Ene=      -0.0697
 Spin= Alpha
 Occup=    0.822132
1 0.000129751424479
2 0.015375969736919
3 0.006762313911428
4 -0.004847677603633
5 -0.000960502742691
6 0.65751887208388
7 -0.000458807506844
8 -0.000086875719901
9 0.062492229647914
10 0.001045952573889
11 0.001036951138750
12 -0.002082903712640
13 -0.000009693459896
14 0.000020887769391
15 0.000008512083568
16 0.007260783402501
17 -0.010106448426721
18 -0.000163598036735
19 0.000321294771316