 Entering Gaussian System, Link 0=g09
 Input=geom.com
 Output=geom.log
 Initial command:
 /software/cinetica/g09d1/g09d01/d01/build-node-6-2-59348/src/main/l1.exe "/scratch/cc/139145/Gau-167742.inp" -scrdir="/scratch/cc/139145/"
 Entering Link 1 = /software/cinetica/g09d1/g09d01/d01/build-node-6-2-59348/src/main/l1.exe PID=    167743.
  
 Copyright (c) 1988,1990,1992,1993,1995,1998,2003,2009,2013,
            Gaussian, Inc.  All Rights Reserved.
  
 This is part of the Gaussian(R) 09 program.  It is based on
 the Gaussian(R) 03 system (copyright 2003, Gaussian, Inc.),
 the Gaussian(R) 98 system (copyright 1998, Gaussian, Inc.),
 the Gaussian(R) 94 system (copyright 1995, Gaussian, Inc.),
 the Gaussian 92(TM) system (copyright 1992, Gaussian, Inc.),
 the Gaussian 90(TM) system (copyright 1990, Gaussian, Inc.),
 the Gaussian 88(TM) system (copyright 1988, Gaussian, Inc.),
 the Gaussian 86(TM) system (copyright 1986, Carnegie Mellon
 University), and the Gaussian 82(TM) system (copyright 1983,
 Carnegie Mellon University). Gaussian is a federally registered
 trademark of Gaussian, Inc.
  
 This software contains proprietary and confidential information,
 including trade secrets, belonging to Gaussian, Inc.
  
 This software is provided under written license and may be
 used, copied, transmitted, or stored only in accord with that
 written license.
  
 The following legend is applicable only to US Government
 contracts under FAR:
  
                    RESTRICTED RIGHTS LEGEND
  
 Use, reproduction and disclosure by the US Government is
 subject to restrictions as set forth in subparagraphs (a)
 and (c) of the Commercial Computer Software - Restricted
 Rights clause in FAR 52.227-19.
  
 Gaussian, Inc.
 340 Quinnipiac St., Bldg. 40, Wallingford CT 06492
  
  
 ---------------------------------------------------------------
 Warning -- This program may not be used in any manner that
 competes with the business of Gaussian, Inc. or will provide
 assistance to any competitor of Gaussian, Inc.  The licensee
 of this program is prohibited from giving any competitor of
 Gaussian, Inc. access to this program.  By using this program,
 the user acknowledges that Gaussian, Inc. is engaged in the
 business of creating and licensing software in the field of
 computational chemistry and represents and warrants to the
 licensee that it is not a competitor of Gaussian, Inc. and that
 it will not use this program in any manner prohibited above.
 ---------------------------------------------------------------
  

 Cite this work as:
 Gaussian 09, Revision D.01,
 M. J. Frisch, G. W. Trucks, H. B. Schlegel, G. E. Scuseria, 
 M. A. Robb, J. R. Cheeseman, G. Scalmani, V. Barone, B. Mennucci, 
 G. A. Petersson, H. Nakatsuji, M. Caricato, X. Li, H. P. Hratchian, 
 A. F. Izmaylov, J. Bloino, G. Zheng, J. L. Sonnenberg, M. Hada, 
 M. Ehara, K. Toyota, R. Fukuda, J. Hasegawa, M. Ishida, T. Nakajima, 
 Y. Honda, O. Kitao, H. Nakai, T. Vreven, J. A. Montgomery, Jr., 
 J. E. Peralta, F. Ogliaro, M. Bearpark, J. J. Heyd, E. Brothers, 
 K. N. Kudin, V. N. Staroverov, T. Keith, R. Kobayashi, J. Normand, 
 K. Raghavachari, A. Rendell, J. C. Burant, S. S. Iyengar, J. Tomasi, 
 M. Cossi, N. Rega, J. M. Millam, M. Klene, J. E. Knox, J. B. Cross, 
 V. Bakken, C. Adamo, J. Jaramillo, R. Gomperts, R. E. Stratmann, 
 O. Yazyev, A. J. Austin, R. Cammi, C. Pomelli, J. W. Ochterski, 
 R. L. Martin, K. Morokuma, V. G. Zakrzewski, G. A. Voth, 
 P. Salvador, J. J. Dannenberg, S. Dapprich, A. D. Daniels, 
 O. Farkas, J. B. Foresman, J. V. Ortiz, J. Cioslowski, 
 and D. J. Fox, Gaussian, Inc., Wallingford CT, 2013.
 
 ******************************************
 Gaussian 09:  EM64L-G09RevD.01 24-Apr-2013
                27-May-2023 
 ******************************************
 %mem=400MW
 %chk=tmp
 %NProcShared= 32
 Will use up to   32 processors via shared memory.
 ----------------------------------------------------------------------
 # uwb97xd/aug-cc-pvtz opt=(noeig,intern,maxcyc=50) # int=ultrafine nos
 ym iop(7/33=1) guess=(mix,always)
 ----------------------------------------------------------------------
 1/6=50,10=7,11=1,14=-1,18=40,26=4,38=1/1,3;
 2/12=2,15=1,17=6,18=5,29=3,40=1/2;
 3/5=16,6=1,7=10,11=2,16=1,25=1,30=1,71=1,74=-58,75=-5,116=2/1,2,3;
 4/13=-1/1;
 5/5=2,38=5/2;
 6/7=2,8=2,9=2,10=2,28=1/1;
 7/29=1,30=1,33=1/1,2,3,16;
 1/6=50,10=7,11=1,14=-1,18=40,26=4/3(2);
 2/15=1,29=3/2;
 99//99;
 2/15=1,29=3/2;
 3/5=16,6=1,7=10,11=2,16=1,25=1,30=1,71=1,74=-58,75=-5,116=2/1,2,3;
 4/13=-1/1;
 5/5=2,38=5/2;
 7/30=1,33=1/1,2,3,16;
 1/6=50,11=1,14=-1,18=40,26=4/3(-5);
 2/15=1,29=3/2;
 6/7=2,8=2,9=2,10=2,19=2,28=1/1;
 99/9=1/99;
 ------
 geom 0
 ------
 Symbolic Z-matrix:
 Charge =  0 Multiplicity = 1
 C1
 H2                   C1   R1
 H3                   C1   R2       H2   A2
 H4                   C1   R3       H2   A3       H3   D3       0
 C21                  1    rts      2    aabs1    3    babs1    0
 H22                  C21  R21      1    aabs2    2    babs2    0
 H23                  C21  R22      H22  A22      1    babs3    0
 H24                  C21  R23      H22  A23      H23  D23      0
       Variables:
  BABS3               115.383                    
  BABS2                60.0096                   
  AABS2               105.9023                   
  BABS1               115.3954                   
  AABS1               105.8979                   
       Constants:
  D3                  179.8076                   
  R21                   1.0782                   
  R22                   1.0782                   
  R23                   1.0782                   
  A22                 119.9721                   
  A23                 120.0207                   
  D23                 179.8076                   
  A3                  120.0207                   
  A2                  119.9721                   
  R3                    1.0782                   
  R2                    1.0782                   
  R1                    1.0782                   
  RTS                   2.                       
 

 GradGradGradGradGradGradGradGradGradGradGradGradGradGradGradGradGradGrad
 Berny optimization.
 Initialization pass.
                       ----------------------------
                       !    Initial Parameters    !
                       ! (Angstroms and Degrees)  !
 ----------------------                            ----------------------
 !      Name          Value   Derivative information (Atomic Units)     !
 ------------------------------------------------------------------------
 !      BABS3      115.383    estimate D2E/DX2                          !
 !      BABS2       60.0096   estimate D2E/DX2                          !
 !      AABS2      105.9023   estimate D2E/DX2                          !
 !      BABS1      115.3954   estimate D2E/DX2                          !
 !      AABS1      105.8979   estimate D2E/DX2                          !
 !       D3        179.8076   Frozen                                    !
 !       R21         1.0782   Frozen                                    !
 !       R22         1.0782   Frozen                                    !
 !       R23         1.0782   Frozen                                    !
 !       A22       119.9721   Frozen                                    !
 !       A23       120.0207   Frozen                                    !
 !       D23       179.8076   Frozen                                    !
 !       A3        120.0207   Frozen                                    !
 !       A2        119.9721   Frozen                                    !
 !       R3          1.0782   Frozen                                    !
 !       R2          1.0782   Frozen                                    !
 !       R1          1.0782   Frozen                                    !
 !       RTS         2.0      Frozen                                    !
 ------------------------------------------------------------------------
 Trust Radius=3.00D-01 FncErr=1.00D-07 GrdErr=1.00D-06
 Number of steps in this run=     50 maximum allowed number of steps=    100.
 GradGradGradGradGradGradGradGradGradGradGradGradGradGradGradGradGradGrad

 ---------------------------------------------------------------------------------------------------
                            Z-MATRIX (ANGSTROMS AND DEGREES)
   CD    Cent   Atom    N1       Length/X        N2       Alpha/Y        N3        Beta/Z          J
 ---------------------------------------------------------------------------------------------------
      1      1  C 
      2      2  H        1   1.078200(     1)
      3      3  H        1   1.078200(     2)      2  119.972(     8)
      4      4  H        1   1.078200(     3)      2  120.021(     9)      3  179.808(    14)      0
      5      5  C        1   2.000000(     4)      2  105.898(    10)      3  115.395(    15)      0
      6      6  H        5   1.078200(     5)      1  105.902(    11)      2   60.010(    16)      0
      7      7  H        5   1.078200(     6)      6  119.972(    12)      1  115.383(    17)      0
      8      8  H        5   1.078200(     7)      6  120.021(    13)      7  179.808(    18)      0
 ---------------------------------------------------------------------------------------------------
                         Z-Matrix orientation:                         
 ---------------------------------------------------------------------
 Center     Atomic      Atomic             Coordinates (Angstroms)
 Number     Number       Type             X           Y           Z
 ---------------------------------------------------------------------
      1          6           0        0.000000    0.000000    0.000000
      2          1           0        0.000000    0.000000    1.078200
      3          1           0        0.934011    0.000000   -0.538645
      4          1           0       -0.933548   -0.003135   -0.539437
      5          6           0       -0.824918   -1.737634   -0.547848
      6          1           0       -1.818976   -1.737402   -0.130278
      7          1           0       -0.099671   -2.461222   -0.211765
      8          1           0       -0.557044   -1.016619   -1.303424
 ---------------------------------------------------------------------
                    Distance matrix (angstroms):
                    1          2          3          4          5
     1  C    0.000000
     2  H    1.078200   0.000000
     3  H    1.078200   1.867235   0.000000
     4  H    1.078200   1.867692   1.867562   0.000000
     5  C    2.000000   2.518709   2.472507   1.737918   0.000000
     6  H    2.518772   2.790638   3.280894   1.989743   1.078200
     7  H    2.472326   2.780568   2.689417   2.616279   1.078200
     8  H    1.744341   2.648763   1.960011   1.323851   1.078200
                    6          7          8
     6  H    0.000000
     7  H    1.867235   0.000000
     8  H    1.867692   1.867562   0.000000
 Symmetry turned off by external request.
 Stoichiometry    C2H6
 Framework group  C1[X(C2H6)]
 Deg. of freedom    18
 Full point group                 C1      NOp   1
 Rotational constants (GHZ):     82.2130291     14.9521593     14.7736574
 Standard basis: Aug-CC-pVTZ (5D, 7F)
   230 basis functions,   306 primitive gaussians,   260 cartesian basis functions
     9 alpha electrons        9 beta electrons
       nuclear repulsion energy        39.7064355581 Hartrees.
 NAtoms=    8 NActive=    8 NUniq=    8 SFac= 1.00D+00 NAtFMM=   60 NAOKFM=F Big=F
 Integral buffers will be    131072 words long.
 Raffenetti 2 integral format.
 Two-electron integral symmetry is turned off.
 Nuclear repulsion after empirical dispersion term =       39.7044702259 Hartrees.
 One-electron integrals computed using PRISM.
 NBasis=   230 RedAO= T EigKep=  2.40D-05  NBF=   230
 NBsUse=   230 1.00D-06 EigRej= -1.00D+00 NBFU=   230
 ExpMin= 2.53D-02 ExpMax= 8.24D+03 ExpMxC= 2.81D+02 IAcc=3 IRadAn=         5 AccDes= 0.00D+00
 Harris functional with IExCor= 4639 and IRadAn=       5 diagonalized for initial guess.
 HarFok:  IExCor= 4639 AccDes= 0.00D+00 IRadAn=         5 IDoV= 1 UseB2=F ITyADJ=14
 ICtDFT=  3500011 ScaDFX=  1.000000  1.000000  1.000000  1.000000
 FoFCou: FMM=F IPFlag=           0 FMFlag=      100000 FMFlg1=           0
         NFxFlg=           0 DoJE=T BraDBF=F KetDBF=T FulRan=T
         wScrn=  0.000000 ICntrl=     500 IOpCl=  0 I1Cent=   200000004 NGrid=           0
         NMat0=    1 NMatS0=      1 NMatT0=    0 NMatD0=    1 NMtDS0=    0 NMtDT0=    0
 Symmetry not used in FoFCou.
 Mixing orbitals, IMix= 1 IMixAn=  0 NRI=1 NE=    9 Coef=  7.07106781D-01  7.07106781D-01
 Mixing orbitals, IMix= 1 IMixAn=  0 NRI=1 NE=    9 Coef= -7.07106781D-01  7.07106781D-01
 Initial guess <Sx>= 0.0000 <Sy>= 0.0000 <Sz>= 0.0000 <S**2>= 1.0000 S= 0.6180
 Requested convergence on RMS density matrix=1.00D-08 within 128 cycles.
 Requested convergence on MAX density matrix=1.00D-06.
 Requested convergence on             energy=1.00D-06.
 No special actions if energy rises.
 SCF Done:  E(UwB97XD) =  -79.6830399629     A.U. after   15 cycles
            NFock= 15  Conv=0.35D-08     -V/T= 2.0067
 <Sx>= 0.0000 <Sy>= 0.0000 <Sz>= 0.0000 <S**2>= 0.0000 S= 0.0000
 <L.S>=  0.00000000000    
 Annihilation of the first spin contaminant:
 S**2 before annihilation     0.0000,   after     0.0000

 **********************************************************************

            Population analysis using the SCF density.

 **********************************************************************

 Alpha  occ. eigenvalues --  -10.29391 -10.29299  -0.85082  -0.71577  -0.56870
 Alpha  occ. eigenvalues --   -0.53138  -0.48440  -0.42937  -0.31323
 Alpha virt. eigenvalues --    0.03276   0.04107   0.04510   0.04767   0.07046
 Alpha virt. eigenvalues --    0.07360   0.08041   0.10240   0.11418   0.12000
 Alpha virt. eigenvalues --    0.13023   0.14109   0.14397   0.14837   0.17259
 Alpha virt. eigenvalues --    0.19157   0.19204   0.22764   0.24096   0.24540
 Alpha virt. eigenvalues --    0.26207   0.28138   0.29585   0.30452   0.31546
 Alpha virt. eigenvalues --    0.31939   0.34810   0.35098   0.36230   0.36891
 Alpha virt. eigenvalues --    0.37926   0.38563   0.38962   0.39278   0.39976
 Alpha virt. eigenvalues --    0.40728   0.41428   0.42472   0.42973   0.43635
 Alpha virt. eigenvalues --    0.43853   0.45914   0.46219   0.46616   0.47864
 Alpha virt. eigenvalues --    0.49018   0.52758   0.54023   0.55452   0.65607
 Alpha virt. eigenvalues --    0.66557   0.67645   0.72029   0.72277   0.73977
 Alpha virt. eigenvalues --    0.74191   0.75063   0.75948   0.76865   0.77690
 Alpha virt. eigenvalues --    0.78095   0.78516   0.83314   0.83671   0.85167
 Alpha virt. eigenvalues --    0.86911   0.88233   0.88574   0.90489   0.91233
 Alpha virt. eigenvalues --    0.91594   0.94810   0.98672   0.99745   1.01447
 Alpha virt. eigenvalues --    1.03928   1.04783   1.07023   1.08192   1.09586
 Alpha virt. eigenvalues --    1.11308   1.11856   1.12200   1.13446   1.17983
 Alpha virt. eigenvalues --    1.18731   1.21292   1.22200   1.23326   1.26270
 Alpha virt. eigenvalues --    1.31497   1.32103   1.35356   1.36325   1.38444
 Alpha virt. eigenvalues --    1.40729   1.43644   1.44070   1.48250   1.48687
 Alpha virt. eigenvalues --    1.50131   1.52956   1.53261   1.54321   1.55726
 Alpha virt. eigenvalues --    1.56991   1.58938   1.59063   1.62218   1.62623
 Alpha virt. eigenvalues --    1.63726   1.64750   1.66933   1.67335   1.71378
 Alpha virt. eigenvalues --    1.75657   1.78736   1.83514   1.83631   1.84566
 Alpha virt. eigenvalues --    1.87700   1.90547   1.93327   2.00711   2.02427
 Alpha virt. eigenvalues --    2.04573   2.07288   2.09585   2.09758   2.12534
 Alpha virt. eigenvalues --    2.16582   2.21110   2.27518   2.28114   2.54009
 Alpha virt. eigenvalues --    2.79138   2.92007   2.94754   2.97775   3.00135
 Alpha virt. eigenvalues --    3.06486   3.08698   3.18307   3.19563   3.23223
 Alpha virt. eigenvalues --    3.25589   3.33409   3.36105   3.40631   3.41078
 Alpha virt. eigenvalues --    3.42646   3.44214   3.45990   3.47032   3.51183
 Alpha virt. eigenvalues --    3.52336   3.55370   3.59037   3.65356   3.66261
 Alpha virt. eigenvalues --    3.69032   3.70939   3.76704   3.77253   3.78196
 Alpha virt. eigenvalues --    3.79843   3.85800   3.86906   3.88430   3.97163
 Alpha virt. eigenvalues --    4.00891   4.06138   4.06763   4.13441   4.17321
 Alpha virt. eigenvalues --    4.17988   4.19939   4.26536   4.31159   4.32634
 Alpha virt. eigenvalues --    4.50803   4.52492   4.58785   4.61563   4.62763
 Alpha virt. eigenvalues --    4.64449   4.70187   4.70693   4.77389   4.79694
 Alpha virt. eigenvalues --    4.82304   4.83715   4.89946   4.97068   5.02779
 Alpha virt. eigenvalues --    5.04013   5.06482   5.11139   5.16042   5.20619
 Alpha virt. eigenvalues --    5.23071   5.25298   5.27072   5.34327   5.38247
 Alpha virt. eigenvalues --    5.41620   5.48458   5.52895   5.53692   5.61987
 Alpha virt. eigenvalues --    5.95654   6.23382   6.27596   6.29227   6.32597
 Alpha virt. eigenvalues --    6.43939   6.44062   6.46935   6.48663  16.87853
 Alpha virt. eigenvalues --   17.10161
  Beta  occ. eigenvalues --  -10.29391 -10.29299  -0.85082  -0.71577  -0.56870
  Beta  occ. eigenvalues --   -0.53138  -0.48440  -0.42937  -0.31323
  Beta virt. eigenvalues --    0.03276   0.04107   0.04510   0.04767   0.07046
  Beta virt. eigenvalues --    0.07360   0.08041   0.10240   0.11418   0.12000
  Beta virt. eigenvalues --    0.13023   0.14109   0.14397   0.14837   0.17259
  Beta virt. eigenvalues --    0.19157   0.19204   0.22764   0.24096   0.24540
  Beta virt. eigenvalues --    0.26207   0.28138   0.29585   0.30452   0.31546
  Beta virt. eigenvalues --    0.31939   0.34810   0.35098   0.36230   0.36891
  Beta virt. eigenvalues --    0.37926   0.38563   0.38962   0.39278   0.39976
  Beta virt. eigenvalues --    0.40728   0.41428   0.42472   0.42973   0.43635
  Beta virt. eigenvalues --    0.43853   0.45914   0.46219   0.46616   0.47864
  Beta virt. eigenvalues --    0.49018   0.52758   0.54023   0.55452   0.65607
  Beta virt. eigenvalues --    0.66557   0.67645   0.72029   0.72277   0.73977
  Beta virt. eigenvalues --    0.74191   0.75063   0.75948   0.76865   0.77690
  Beta virt. eigenvalues --    0.78095   0.78516   0.83314   0.83671   0.85167
  Beta virt. eigenvalues --    0.86911   0.88233   0.88574   0.90489   0.91233
  Beta virt. eigenvalues --    0.91594   0.94810   0.98672   0.99745   1.01447
  Beta virt. eigenvalues --    1.03928   1.04783   1.07023   1.08192   1.09586
  Beta virt. eigenvalues --    1.11308   1.11856   1.12200   1.13446   1.17983
  Beta virt. eigenvalues --    1.18731   1.21292   1.22200   1.23326   1.26270
  Beta virt. eigenvalues --    1.31497   1.32103   1.35356   1.36325   1.38444
  Beta virt. eigenvalues --    1.40729   1.43644   1.44070   1.48250   1.48687
  Beta virt. eigenvalues --    1.50131   1.52956   1.53261   1.54321   1.55726
  Beta virt. eigenvalues --    1.56991   1.58938   1.59063   1.62218   1.62623
  Beta virt. eigenvalues --    1.63726   1.64750   1.66933   1.67335   1.71378
  Beta virt. eigenvalues --    1.75657   1.78736   1.83514   1.83631   1.84566
  Beta virt. eigenvalues --    1.87700   1.90547   1.93327   2.00711   2.02427
  Beta virt. eigenvalues --    2.04573   2.07288   2.09585   2.09758   2.12534
  Beta virt. eigenvalues --    2.16582   2.21110   2.27518   2.28114   2.54009
  Beta virt. eigenvalues --    2.79138   2.92007   2.94754   2.97775   3.00135
  Beta virt. eigenvalues --    3.06486   3.08698   3.18307   3.19563   3.23223
  Beta virt. eigenvalues --    3.25589   3.33409   3.36105   3.40631   3.41078
  Beta virt. eigenvalues --    3.42646   3.44214   3.45990   3.47032   3.51183
  Beta virt. eigenvalues --    3.52336   3.55370   3.59037   3.65356   3.66261
  Beta virt. eigenvalues --    3.69032   3.70939   3.76704   3.77253   3.78196
  Beta virt. eigenvalues --    3.79843   3.85800   3.86906   3.88430   3.97163
  Beta virt. eigenvalues --    4.00891   4.06138   4.06763   4.13441   4.17321
  Beta virt. eigenvalues --    4.17988   4.19939   4.26536   4.31159   4.32634
  Beta virt. eigenvalues --    4.50803   4.52492   4.58785   4.61563   4.62763
  Beta virt. eigenvalues --    4.64449   4.70187   4.70693   4.77389   4.79694
  Beta virt. eigenvalues --    4.82304   4.83715   4.89946   4.97068   5.02779
  Beta virt. eigenvalues --    5.04013   5.06482   5.11139   5.16042   5.20619
  Beta virt. eigenvalues --    5.23071   5.25298   5.27072   5.34327   5.38247
  Beta virt. eigenvalues --    5.41620   5.48458   5.52895   5.53692   5.61987
  Beta virt. eigenvalues --    5.95654   6.23382   6.27596   6.29227   6.32597
  Beta virt. eigenvalues --    6.43939   6.44062   6.46935   6.48663  16.87853
  Beta virt. eigenvalues --   17.10161
          Condensed to atoms (all electrons):
               1          2          3          4          5          6
     1  C    5.983441   0.359216   0.362297   0.320634   0.091986   0.005720
     2  H    0.359216   0.308682   0.001230   0.004609  -0.013190  -0.002180
     3  H    0.362297   0.001230   0.300778   0.008331   0.007056   0.001642
     4  H    0.320634   0.004609   0.008331   0.260449  -0.016089  -0.001575
     5  C    0.091986  -0.013190   0.007056  -0.016089   5.977808   0.367940
     6  H    0.005720  -0.002180   0.001642  -0.001575   0.367940   0.301777
     7  H   -0.010519   0.001227  -0.002353   0.000710   0.355840   0.003320
     8  H   -0.016271   0.000647  -0.002175  -0.012425   0.322617   0.008116
               7          8
     1  C   -0.010519  -0.016271
     2  H    0.001227   0.000647
     3  H   -0.002353  -0.002175
     4  H    0.000710  -0.012425
     5  C    0.355840   0.322617
     6  H    0.003320   0.008116
     7  H    0.303885   0.004891
     8  H    0.004891   0.260676
          Atomic-Atomic Spin Densities.
               1          2          3          4          5          6
     1  C   -0.000000  -0.000000   0.000000   0.000000  -0.000000   0.000000
     2  H   -0.000000  -0.000000   0.000000   0.000000  -0.000000  -0.000000
     3  H    0.000000   0.000000  -0.000000  -0.000000  -0.000000   0.000000
     4  H    0.000000   0.000000  -0.000000   0.000000  -0.000000  -0.000000
     5  C   -0.000000  -0.000000  -0.000000  -0.000000   0.000000  -0.000000
     6  H    0.000000  -0.000000   0.000000  -0.000000  -0.000000   0.000000
     7  H    0.000000  -0.000000   0.000000   0.000000   0.000000  -0.000000
     8  H    0.000000  -0.000000   0.000000  -0.000000  -0.000000   0.000000
               7          8
     1  C    0.000000   0.000000
     2  H   -0.000000  -0.000000
     3  H    0.000000   0.000000
     4  H    0.000000  -0.000000
     5  C    0.000000  -0.000000
     6  H   -0.000000   0.000000
     7  H    0.000000  -0.000000
     8  H   -0.000000  -0.000000
 Mulliken charges and spin densities:
               1          2
     1  C   -1.096504  -0.000000
     2  H    0.339758  -0.000000
     3  H    0.323194   0.000000
     4  H    0.435357   0.000000
     5  C   -1.093969   0.000000
     6  H    0.315240  -0.000000
     7  H    0.342999   0.000000
     8  H    0.433924  -0.000000
 Sum of Mulliken charges =  -0.00000   0.00000
 Mulliken charges and spin densities with hydrogens summed into heavy atoms:
               1          2
     1  C    0.001805  -0.000000
     5  C   -0.001805   0.000000
 Electronic spatial extent (au):  <R**2>=            188.8245
 Charge=             -0.0000 electrons
 Dipole moment (field-independent basis, Debye):
    X=              0.1015    Y=             -0.1621    Z=              0.2442  Tot=              0.3102
 Quadrupole moment (field-independent basis, Debye-Ang):
   XX=            -14.2776   YY=            -17.3345   ZZ=            -15.8885
   XY=             -0.0903   XZ=             -0.7059   YZ=             -1.2293
 Traceless Quadrupole moment (field-independent basis, Debye-Ang):
   XX=              1.5559   YY=             -1.5010   ZZ=             -0.0550
   XY=             -0.0903   XZ=             -0.7059   YZ=             -1.2293
 Octapole moment (field-independent basis, Debye-Ang**2):
  XXX=             17.5120  YYY=             41.3816  ZZZ=             15.5053  XYY=              8.3013
  XXY=             12.4620  XXZ=              4.6602  XZZ=              7.8370  YZZ=             16.1922
  YYZ=              8.2378  XYZ=              1.6299
 Hexadecapole moment (field-independent basis, Debye-Ang**3):
 XXXX=            -56.8762 YYYY=           -169.6944 ZZZZ=            -46.2004 XXXY=            -29.4557
 XXXZ=            -12.2995 YYYX=            -37.9284 YYYZ=            -30.3064 ZZZX=            -12.4547
 ZZZY=            -25.6274 XXYY=            -37.9297 XXZZ=            -19.5616 YYZZ=            -42.3391
 XXYZ=             -9.3798 YYXZ=             -7.1874 ZZXY=            -13.8014
 N-N= 3.970447022586D+01 E-N=-2.631085736827D+02  KE= 7.915613331527D+01
                          Isotropic Fermi Contact Couplings
        Atom                 a.u.       MegaHertz       Gauss      10(-4) cm-1
     1  C(13)             -0.00000      -0.00002      -0.00001      -0.00001
     2  H(1)              -0.00000      -0.00002      -0.00001      -0.00001
     3  H(1)              -0.00000      -0.00000      -0.00000      -0.00000
     4  H(1)               0.00000       0.00005       0.00002       0.00002
     5  C(13)             -0.00000      -0.00000      -0.00000      -0.00000
     6  H(1)               0.00000       0.00001       0.00000       0.00000
     7  H(1)               0.00000       0.00004       0.00001       0.00001
     8  H(1)              -0.00000      -0.00004      -0.00001      -0.00001
 --------------------------------------------------------
       Center         ----  Spin Dipole Couplings  ----
                      3XX-RR        3YY-RR        3ZZ-RR
 --------------------------------------------------------
     1   Atom        0.000000     -0.000000      0.000000
     2   Atom        0.000000     -0.000000     -0.000000
     3   Atom       -0.000000      0.000000      0.000000
     4   Atom       -0.000000      0.000000      0.000000
     5   Atom       -0.000000     -0.000000      0.000000
     6   Atom        0.000000     -0.000000     -0.000000
     7   Atom       -0.000000      0.000000      0.000000
     8   Atom       -0.000000      0.000000     -0.000000
 --------------------------------------------------------
                        XY            XZ            YZ
 --------------------------------------------------------
     1   Atom        0.000000     -0.000000      0.000000
     2   Atom        0.000000      0.000000      0.000000
     3   Atom       -0.000000      0.000000      0.000000
     4   Atom       -0.000000     -0.000000     -0.000000
     5   Atom        0.000000      0.000000      0.000000
     6   Atom        0.000000      0.000000      0.000000
     7   Atom       -0.000000     -0.000000      0.000000
     8   Atom        0.000000     -0.000000     -0.000000
 --------------------------------------------------------


 ---------------------------------------------------------------------------------
              Anisotropic Spin Dipole Couplings in Principal Axis System
 ---------------------------------------------------------------------------------

       Atom             a.u.   MegaHertz   Gauss  10(-4) cm-1        Axes

              Baa    -0.0000    -0.000    -0.000    -0.000 -0.3521  0.9354 -0.0341
     1 C(13)  Bbb     0.0000     0.000     0.000     0.000  0.5508  0.2365  0.8004
              Bcc     0.0000     0.000     0.000     0.000  0.7568  0.2630 -0.5985
 
              Baa    -0.0000    -0.000    -0.000    -0.000 -0.0045 -0.3953  0.9186
     2 H(1)   Bbb    -0.0000    -0.000    -0.000    -0.000 -0.4282  0.8308  0.3554
              Bcc     0.0000     0.000     0.000     0.000  0.9037  0.3917  0.1730
 
              Baa    -0.0000    -0.000    -0.000    -0.000  0.7793  0.3281 -0.5339
     3 H(1)   Bbb     0.0000     0.000     0.000     0.000 -0.4806  0.8597 -0.1733
              Bcc     0.0000     0.000     0.000     0.000  0.4021  0.3916  0.8276
 
              Baa    -0.0000    -0.000    -0.000    -0.000  0.8245  0.2798  0.4918
     4 H(1)   Bbb     0.0000     0.000     0.000     0.000 -0.5534  0.5798  0.5980
              Bcc     0.0000     0.000     0.000     0.000  0.1178  0.7652 -0.6329
 
              Baa    -0.0000    -0.000    -0.000    -0.000  0.8229 -0.5475  0.1521
     5 C(13)  Bbb    -0.0000    -0.000    -0.000    -0.000  0.5577  0.7267 -0.4011
              Bcc     0.0000     0.000     0.000     0.000  0.1091  0.4148  0.9033
 
              Baa    -0.0000    -0.000    -0.000    -0.000 -0.2587  0.9656 -0.0249
     6 H(1)   Bbb    -0.0000    -0.000    -0.000    -0.000 -0.1768 -0.0220  0.9840
              Bcc     0.0000     0.000     0.000     0.000  0.9496  0.2590  0.1764
 
              Baa    -0.0000    -0.000    -0.000    -0.000  0.7092  0.6420 -0.2912
     7 H(1)   Bbb    -0.0000    -0.000    -0.000    -0.000  0.6144 -0.3603  0.7020
              Bcc     0.0000     0.000     0.000     0.000 -0.3457  0.6768  0.6500
 
              Baa    -0.0000    -0.000    -0.000    -0.000  0.9593 -0.1956  0.2035
     8 H(1)   Bbb    -0.0000    -0.000    -0.000    -0.000 -0.0809  0.5004  0.8620
              Bcc     0.0000     0.000     0.000     0.000  0.2704  0.8434 -0.4642
 

 ---------------------------------------------------------------------------------

 DipInt: DoE/N= T T RetVal/Mat= T F Init=T NMatP=  1 IDeriv=0 Min/MaxMlt=  1  1
 Entering OneElI...
 Multipole integrals L=1 to 1 MinM= 0 MaxM= 0.
 Requested accuracy = 0.1000D-12
 PrsmSu:  NPrtUS=   1 ThrOK=F IAlg=1 NPAlg=1 LenDen=           0.
 Prism:   IPart=     0 DynPar=F LinDyn=F Incr=          34.
 PRISM was handed   419146499 working-precision words and  3403 shell-pairs
 IPart=  0 NShTot=        3403 NBatch=          44 AvBLen=        77.3
 PrSmSu:  NxtVal=             35.
 Entering OneElI...
 Calculate overlap and kinetic energy integrals
    NBasis = 260  MinDer = 1  MaxDer = 1
 Requested accuracy = 0.1000D-12
 PrsmSu:  NPrtUS=  32 ThrOK=T IAlg=1 NPAlg=1 LenDen=           0.
 Prism:   IPart=     0 DynPar=F LinDyn=F Incr=           1.
 PRISM was handed    13040768 working-precision words and  3403 shell-pairs
 PRISM was handed    13040768 working-precision words and  3403 shell-pairs
 PRISM was handed    13040768 working-precision words and  3403 shell-pairs
 PRISM was handed    13040768 working-precision words and  3403 shell-pairs
 PRISM was handed    13040768 working-precision words and  3403 shell-pairs
 PRISM was handed    13040768 working-precision words and  3403 shell-pairs
 PRISM was handed    13040768 working-precision words and  3403 shell-pairs
 PRISM was handed    13040768 working-precision words and  3403 shell-pairs
 PRISM was handed    13040768 working-precision words and  3403 shell-pairs
 PRISM was handed    13040768 working-precision words and  3403 shell-pairs
 PRISM was handed    13040768 working-precision words and  3403 shell-pairs
 PRISM was handed    13040768 working-precision words and  3403 shell-pairs
 PRISM was handed    13040768 working-precision words and  3403 shell-pairs
 PRISM was handed    13040768 working-precision words and  3403 shell-pairs
 PRISM was handed    13040768 working-precision words and  3403 shell-pairs
 PRISM was handed    13040768 working-precision words and  3403 shell-pairs
 PRISM was handed    13040768 working-precision words and  3403 shell-pairs
 PRISM was handed    13040768 working-precision words and  3403 shell-pairs
 PRISM was handed    13040768 working-precision words and  3403 shell-pairs
 PRISM was handed    13040768 working-precision words and  3403 shell-pairs
 PRISM was handed    13040768 working-precision words and  3403 shell-pairs
 PRISM was handed    13040768 working-precision words and  3403 shell-pairs
 PRISM was handed    13040768 working-precision words and  3403 shell-pairs
 PRISM was handed    13040768 working-precision words and  3403 shell-pairs
 PRISM was handed    13040768 working-precision words and  3403 shell-pairs
 PRISM was handed    13040768 working-precision words and  3403 shell-pairs
 PRISM was handed    13040768 working-precision words and  3403 shell-pairs
 PRISM was handed    13040768 working-precision words and  3403 shell-pairs
 PRISM was handed    13040768 working-precision words and  3403 shell-pairs
 PRISM was handed    13040768 working-precision words and  3403 shell-pairs
 PRISM was handed    13040768 working-precision words and  3403 shell-pairs
 PRISM was handed    13040768 working-precision words and  3403 shell-pairs
 IPart= 19 NShTot=          98 NBatch=          21 AvBLen=         4.7
 IPart=  4 NShTot=         120 NBatch=          31 AvBLen=         3.9
 IPart= 14 NShTot=         105 NBatch=          21 AvBLen=         5.0
 IPart=  6 NShTot=         116 NBatch=          27 AvBLen=         4.3
 IPart= 21 NShTot=          97 NBatch=          21 AvBLen=         4.6
 IPart=  0 NShTot=         138 NBatch=          46 AvBLen=         3.0
 IPart= 23 NShTot=          97 NBatch=          21 AvBLen=         4.6
 IPart= 10 NShTot=         110 NBatch=          22 AvBLen=         5.0
 IPart= 18 NShTot=          98 NBatch=          21 AvBLen=         4.7
 IPart=  7 NShTot=         116 NBatch=          27 AvBLen=         4.3
 IPart= 27 NShTot=          96 NBatch=          20 AvBLen=         4.8
 IPart=  2 NShTot=         123 NBatch=          31 AvBLen=         4.0
 IPart= 29 NShTot=          96 NBatch=          20 AvBLen=         4.8
 IPart= 16 NShTot=          99 NBatch=          21 AvBLen=         4.7
 IPart= 30 NShTot=          96 NBatch=          20 AvBLen=         4.8
 IPart=  9 NShTot=         112 NBatch=          24 AvBLen=         4.7
 IPart= 26 NShTot=          96 NBatch=          20 AvBLen=         4.8
 IPart= 12 NShTot=         105 NBatch=          21 AvBLen=         5.0
 IPart= 22 NShTot=          97 NBatch=          21 AvBLen=         4.6
 IPart= 31 NShTot=          96 NBatch=          20 AvBLen=         4.8
 IPart= 20 NShTot=          97 NBatch=          21 AvBLen=         4.6
 IPart= 25 NShTot=          96 NBatch=          20 AvBLen=         4.8
 IPart=  8 NShTot=         112 NBatch=          24 AvBLen=         4.7
 IPart= 24 NShTot=          96 NBatch=          20 AvBLen=         4.8
 IPart= 13 NShTot=         105 NBatch=          21 AvBLen=         5.0
 IPart=  3 NShTot=         123 NBatch=          31 AvBLen=         4.0
 IPart= 17 NShTot=          98 NBatch=          21 AvBLen=         4.7
 IPart= 28 NShTot=          96 NBatch=          20 AvBLen=         4.8
 IPart= 11 NShTot=         109 NBatch=          22 AvBLen=         5.0
 IPart= 15 NShTot=         105 NBatch=          21 AvBLen=         5.0
 IPart=  1 NShTot=         135 NBatch=          43 AvBLen=         3.1
 IPart=  5 NShTot=         120 NBatch=          31 AvBLen=         3.9
 PrSmSu:  NxtVal=             33.
 Entering OneElI...
 Calculate potential energy integrals
    NBasis = 260  MinDer = 1  MaxDer = 1
 Requested accuracy = 0.1000D-12
 PrsmSu:  NPrtUS=  32 ThrOK=T IAlg=1 NPAlg=1 LenDen=           0.
 Prism:   IPart=     0 DynPar=F LinDyn=F Incr=           8.
 PRISM was handed    13044794 working-precision words and  3403 shell-pairs
 PRISM was handed    13044794 working-precision words and  3403 shell-pairs
 PRISM was handed    13044794 working-precision words and  3403 shell-pairs
 PRISM was handed    13044794 working-precision words and  3403 shell-pairs
 PRISM was handed    13044794 working-precision words and  3403 shell-pairs
 PRISM was handed    13044794 working-precision words and  3403 shell-pairs
 PRISM was handed    13044794 working-precision words and  3403 shell-pairs
 PRISM was handed    13044794 working-precision words and  3403 shell-pairs
 PRISM was handed    13044794 working-precision words and  3403 shell-pairs
 PRISM was handed    13044794 working-precision words and  3403 shell-pairs
 PRISM was handed    13044794 working-precision words and  3403 shell-pairs
 PRISM was handed    13044794 working-precision words and  3403 shell-pairs
 PRISM was handed    13044794 working-precision words and  3403 shell-pairs
 PRISM was handed    13044794 working-precision words and  3403 shell-pairs
 PRISM was handed    13044794 working-precision words and  3403 shell-pairs
 PRISM was handed    13044794 working-precision words and  3403 shell-pairs
 PRISM was handed    13044794 working-precision words and  3403 shell-pairs
 PRISM was handed    13044794 working-precision words and  3403 shell-pairs
 PRISM was handed    13044794 working-precision words and  3403 shell-pairs
 PRISM was handed    13044794 working-precision words and  3403 shell-pairs
 PRISM was handed    13044794 working-precision words and  3403 shell-pairs
 PRISM was handed    13044794 working-precision words and  3403 shell-pairs
 PRISM was handed    13044794 working-precision words and  3403 shell-pairs
 PRISM was handed    13044794 working-precision words and  3403 shell-pairs
 PRISM was handed    13044794 working-precision words and  3403 shell-pairs
 PRISM was handed    13044794 working-precision words and  3403 shell-pairs
 PRISM was handed    13044794 working-precision words and  3403 shell-pairs
 PRISM was handed    13044794 working-precision words and  3403 shell-pairs
 PRISM was handed    13044794 working-precision words and  3403 shell-pairs
 PRISM was handed    13044794 working-precision words and  3403 shell-pairs
 PRISM was handed    13044794 working-precision words and  3403 shell-pairs
 PRISM was handed    13044794 working-precision words and  3403 shell-pairs
 IPart= 10 NShTot=         872 NBatch=         109 AvBLen=         8.0
 IPart= 19 NShTot=         792 NBatch=          99 AvBLen=         8.0
 IPart=  0 NShTot=        1088 NBatch=         136 AvBLen=         8.0
 IPart= 23 NShTot=         768 NBatch=          96 AvBLen=         8.0
 IPart= 27 NShTot=         760 NBatch=          95 AvBLen=         8.0
 IPart=  2 NShTot=        1016 NBatch=         127 AvBLen=         8.0
 IPart= 12 NShTot=         840 NBatch=         105 AvBLen=         8.0
 IPart=  4 NShTot=         968 NBatch=         121 AvBLen=         8.0
 IPart= 30 NShTot=         760 NBatch=          95 AvBLen=         8.0
 IPart= 14 NShTot=         824 NBatch=         103 AvBLen=         8.0
 IPart= 29 NShTot=         760 NBatch=          95 AvBLen=         8.0
 IPart= 25 NShTot=         760 NBatch=          95 AvBLen=         8.0
 IPart= 22 NShTot=         768 NBatch=          96 AvBLen=         8.0
 IPart= 20 NShTot=         784 NBatch=          98 AvBLen=         8.0
 IPart= 26 NShTot=         760 NBatch=          95 AvBLen=         8.0
 IPart=  9 NShTot=         880 NBatch=         110 AvBLen=         8.0
 IPart= 21 NShTot=         776 NBatch=          97 AvBLen=         8.0
 IPart= 31 NShTot=         760 NBatch=          95 AvBLen=         8.0
 IPart=  7 NShTot=         944 NBatch=         118 AvBLen=         8.0
 IPart=  6 NShTot=         944 NBatch=         118 AvBLen=         8.0
 IPart= 18 NShTot=         792 NBatch=          99 AvBLen=         8.0
 IPart= 24 NShTot=         760 NBatch=          95 AvBLen=         8.0
 IPart=  3 NShTot=        1016 NBatch=         127 AvBLen=         8.0
 IPart= 13 NShTot=         840 NBatch=         105 AvBLen=         8.0
 IPart= 17 NShTot=         808 NBatch=         101 AvBLen=         8.0
 IPart= 28 NShTot=         760 NBatch=          95 AvBLen=         8.0
 IPart= 16 NShTot=         808 NBatch=         101 AvBLen=         8.0
 IPart= 11 NShTot=         856 NBatch=         107 AvBLen=         8.0
 IPart=  8 NShTot=         896 NBatch=         112 AvBLen=         8.0
 IPart= 15 NShTot=         824 NBatch=         103 AvBLen=         8.0
 IPart=  1 NShTot=        1072 NBatch=         134 AvBLen=         8.0
 IPart=  5 NShTot=         968 NBatch=         121 AvBLen=         8.0
 PrSmSu:  NxtVal=            257.
 l701 out
 I=    0 X=   3.992138131951D-02 Y=  -6.377898008478D-02 Z=   9.607385956151D-02
 I=    1 X=   1.815218034282D+00 Y=   3.186261587150D+00 Z=   7.844372359230D-01
 I=    2 X=   4.756793268600D-02 Y=  -3.287117929619D-02 Z=   3.272207607100D+00
 I=    3 X=   3.014832625877D+00 Y=   5.052375609702D-01 Z=  -1.566550979457D+00
 I=    4 X=  -2.681144159354D+00 Y=  -6.741170495875D-02 Z=  -1.572330878398D+00
 I=    5 X=  -1.881100886428D+00 Y=  -3.111381724847D+00 Z=  -9.408583423031D-01
 I=    6 X=  -3.222406928174D+00 Y=  -3.933758474198D-01 Z=   1.072740720317D+00
 I=    7 X=   2.162213182490D+00 Y=  -2.234675497060D+00 Z=   1.081554754867D+00
 I=    8 X=   7.448201986206D-01 Y=   2.148216805462D+00 Z=  -2.131200118048D+00
 ICntrl=      2127.
 Calling FoFJK, ICntrl=      2127 FMM=F ISym2X=0 I1Cent= 0 IOpClX= 1 NMat=1 NMatS=1 NMatT=0.
 FoFJK:  IHMeth= 1 ICntrl=    2127 DoSepK=T KAlg= 0 I1Cent=   0 FoldK=F
 IRaf=         1 NMat=   1 IRICut=       1 DoRegI=T DoRafI=F ISym2E= 0.
 FoFCou: FMM=F IPFlag=           0 FMFlag=      100000 FMFlg1=         800
         NFxFlg=           0 DoJE=F BraDBF=F KetDBF=F FulRan=T
         wScrn=  0.000000 ICntrl=    2527 IOpCl=  0 I1Cent=           0 NGrid=           0
         NMat0=    1 NMatS0=      1 NMatT0=    0 NMatD0=    1 NMtDS0=    0 NMtDT0=    0
 Symmetry not used in FoFCou.
 FoFCou:  KetSym=F NOpSet=  1 NOpAb=1 NOp=  1.
 FoFCou:  CnvScl= 1.00D+00 Thresh= 1.00D-10 IAcrcy=      10.
 PrismS was handed   419075732 working-precision words and  3403 shell-pairs
 FoFCou: LinMIO=F DoNuc=F BraDBF=F KetDBF=F HaveP=T PDBF=F HaveZ=T HaveW=F
         NIJTC =      10 NIJTAt=       0 NIJTCD=       0 NIJTT =      10
         IJTBeg=       1 IJTEnd=      10 KLTBeg=       1 KLTEnd=      10
         IPTBeg=       1 IPTEnd=      10 IPTBCv=       1 IPTECv=      10
         IZTBeg=       1 IZTEnd=      10 IZTBCv=       1 IZTECv=      10
         IWTBeg=      11 IWTEnd=      10 IWTBCv=      11 IWTECv=      10
         INTBeg=       1 INTEnd=       0 IFTBCv=       1 IFTECv=      10
 NCel replicated for PrismC:     1
 CoulSu:  IncDef=  1024 NBBP=        5791906 NTPThr=   100 NPartT=   32 Incr=        1024 LDynOK=F.
 CoulSu:  NPrtUS=  32 ThrOK=T IAlg=1 NPAlg=1 LenDen=           0 LWGrdD=           0 DoCopy=F.
 Enter PrismC: JobTyp=21 DoJE=F Cont=F.
 PrismC:  IPart=     0 DynPar=T LinDyn=F Incr=        1024 UseFst=F UseS4=T IGathr=2.
 PrismC was handed    13041909 working-precision words and  3403 shell-pairs
 Enter PrismC: JobTyp=21 DoJE=F Cont=F.
 Enter PrismC: JobTyp=21 DoJE=F Cont=F.
 Enter PrismC: JobTyp=21 DoJE=F Cont=F.
 Enter PrismC: JobTyp=21 DoJE=F Cont=F.
 Enter PrismC: JobTyp=21 DoJE=F Cont=F.
 Enter PrismC: JobTyp=21 DoJE=F Cont=F.
 Enter PrismC: JobTyp=21 DoJE=F Cont=F.
 Enter PrismC: JobTyp=21 DoJE=F Cont=F.
 PrismC was handed    13041909 working-precision words and  3403 shell-pairs
 Enter PrismC: JobTyp=21 DoJE=F Cont=F.
 PrismC was handed    13041909 working-precision words and  3403 shell-pairs
 Enter PrismC: JobTyp=21 DoJE=F Cont=F.
 PrismC was handed    13041909 working-precision words and  3403 shell-pairs
 Enter PrismC: JobTyp=21 DoJE=F Cont=F.
 PrismC was handed    13041909 working-precision words and  3403 shell-pairs
 Enter PrismC: JobTyp=21 DoJE=F Cont=F.
 PrismC was handed    13041909 working-precision words and  3403 shell-pairs
 Enter PrismC: JobTyp=21 DoJE=F Cont=F.
 PrismC was handed    13041909 working-precision words and  3403 shell-pairs
 Enter PrismC: JobTyp=21 DoJE=F Cont=F.
 PrismC was handed    13041909 working-precision words and  3403 shell-pairs
 Enter PrismC: JobTyp=21 DoJE=F Cont=F.
 PrismC was handed    13041909 working-precision words and  3403 shell-pairs
 Enter PrismC: JobTyp=21 DoJE=F Cont=F.
 PrismC was handed    13041909 working-precision words and  3403 shell-pairs
 Enter PrismC: JobTyp=21 DoJE=F Cont=F.
 PrismC was handed    13041909 working-precision words and  3403 shell-pairs
 Enter PrismC: JobTyp=21 DoJE=F Cont=F.
 PrismC was handed    13041909 working-precision words and  3403 shell-pairs
 Enter PrismC: JobTyp=21 DoJE=F Cont=F.
 PrismC was handed    13041909 working-precision words and  3403 shell-pairs
 Enter PrismC: JobTyp=21 DoJE=F Cont=F.
 PrismC was handed    13041909 working-precision words and  3403 shell-pairs
 Enter PrismC: JobTyp=21 DoJE=F Cont=F.
 PrismC was handed    13041909 working-precision words and  3403 shell-pairs
 Enter PrismC: JobTyp=21 DoJE=F Cont=F.
 PrismC was handed    13041909 working-precision words and  3403 shell-pairs
 Enter PrismC: JobTyp=21 DoJE=F Cont=F.
 PrismC was handed    13041909 working-precision words and  3403 shell-pairs
 Enter PrismC: JobTyp=21 DoJE=F Cont=F.
 PrismC was handed    13041909 working-precision words and  3403 shell-pairs
 Enter PrismC: JobTyp=21 DoJE=F Cont=F.
 PrismC was handed    13041909 working-precision words and  3403 shell-pairs
 Enter PrismC: JobTyp=21 DoJE=F Cont=F.
 PrismC was handed    13041909 working-precision words and  3403 shell-pairs
 Enter PrismC: JobTyp=21 DoJE=F Cont=F.
 PrismC was handed    13041909 working-precision words and  3403 shell-pairs
 Enter PrismC: JobTyp=21 DoJE=F Cont=F.
 PrismC was handed    13041909 working-precision words and  3403 shell-pairs
 Enter PrismC: JobTyp=21 DoJE=F Cont=F.
 PrismC was handed    13041909 working-precision words and  3403 shell-pairs
 Enter PrismC: JobTyp=21 DoJE=F Cont=F.
 PrismC was handed    13041909 working-precision words and  3403 shell-pairs
 Enter PrismC: JobTyp=21 DoJE=F Cont=F.
 PrismC was handed    13041909 working-precision words and  3403 shell-pairs
 PrismC was handed    13041909 working-precision words and  3403 shell-pairs
 PrismC was handed    13041909 working-precision words and  3403 shell-pairs
 PrismC was handed    13041909 working-precision words and  3403 shell-pairs
 PrismC was handed    13041909 working-precision words and  3403 shell-pairs
 PrismC was handed    13041909 working-precision words and  3403 shell-pairs
 PrismC was handed    13041909 working-precision words and  3403 shell-pairs
 PrismC was handed    13041909 working-precision words and  3403 shell-pairs
 IPart= 23 NShTot=      181380 NShNF=      181380 NShFF=           0 NBatch=        1611 AvBLen=       112.6
 IPart= 17 NShTot=      163770 NShNF=      163770 NShFF=           0 NBatch=        1640 AvBLen=        99.9
 IPart=  8 NShTot=      189360 NShNF=      189360 NShFF=           0 NBatch=        1649 AvBLen=       114.8
 IPart= 15 NShTot=      163293 NShNF=      163293 NShFF=           0 NBatch=        1638 AvBLen=        99.7
 IPart= 25 NShTot=      175819 NShNF=      175819 NShFF=           0 NBatch=        1760 AvBLen=        99.9
 IPart= 28 NShTot=      177080 NShNF=      177080 NShFF=           0 NBatch=        1583 AvBLen=       111.9
 IPart= 20 NShTot=      180662 NShNF=      180662 NShFF=           0 NBatch=        1632 AvBLen=       110.7
 IPart= 16 NShTot=      180126 NShNF=      180126 NShFF=           0 NBatch=        1576 AvBLen=       114.3
 IPart= 24 NShTot=      182794 NShNF=      182794 NShFF=           0 NBatch=        1597 AvBLen=       114.5
 IPart=  6 NShTot=      178147 NShNF=      178147 NShFF=           0 NBatch=        1691 AvBLen=       105.4
 IPart= 22 NShTot=      188839 NShNF=      188839 NShFF=           0 NBatch=        1611 AvBLen=       117.2
 IPart= 27 NShTot=      186182 NShNF=      186182 NShFF=           0 NBatch=        1664 AvBLen=       111.9
 IPart= 26 NShTot=      172781 NShNF=      172781 NShFF=           0 NBatch=        1634 AvBLen=       105.7
 IPart= 18 NShTot=      181231 NShNF=      181231 NShFF=           0 NBatch=        1673 AvBLen=       108.3
 IPart= 13 NShTot=      161993 NShNF=      161993 NShFF=           0 NBatch=        1659 AvBLen=        97.6
 IPart=  1 NShTot=      160911 NShNF=      160911 NShFF=           0 NBatch=        1660 AvBLen=        96.9
 IPart= 10 NShTot=      178978 NShNF=      178978 NShFF=           0 NBatch=        1695 AvBLen=       105.6
 IPart=  7 NShTot=      172993 NShNF=      172993 NShFF=           0 NBatch=        1503 AvBLen=       115.1
 IPart= 30 NShTot=      174160 NShNF=      174160 NShFF=           0 NBatch=        1494 AvBLen=       116.6
 IPart=  9 NShTot=      156392 NShNF=      156392 NShFF=           0 NBatch=        1615 AvBLen=        96.8
 IPart=  3 NShTot=      184051 NShNF=      184051 NShFF=           0 NBatch=        1408 AvBLen=       130.7
 IPart= 11 NShTot=      186808 NShNF=      186808 NShFF=           0 NBatch=        1679 AvBLen=       111.3
 IPart=  0 NShTot=      164870 NShNF=      164870 NShFF=           0 NBatch=        1194 AvBLen=       138.1
 IPart= 31 NShTot=      168327 NShNF=      168327 NShFF=           0 NBatch=        1390 AvBLen=       121.1
 IPart= 19 NShTot=      177653 NShNF=      177653 NShFF=           0 NBatch=        1652 AvBLen=       107.5
 IPart=  5 NShTot=      169546 NShNF=      169546 NShFF=           0 NBatch=        1628 AvBLen=       104.1
 IPart= 14 NShTot=      191729 NShNF=      191729 NShFF=           0 NBatch=        1486 AvBLen=       129.0
 IPart=  2 NShTot=      188020 NShNF=      188020 NShFF=           0 NBatch=        1561 AvBLen=       120.4
 IPart= 21 NShTot=      187746 NShNF=      187746 NShFF=           0 NBatch=        1674 AvBLen=       112.2
 IPart= 29 NShTot=      192015 NShNF=      192015 NShFF=           0 NBatch=        1723 AvBLen=       111.4
 IPart= 12 NShTot=      188525 NShNF=      188525 NShFF=           0 NBatch=        1441 AvBLen=       130.8
 IPart=  4 NShTot=      180432 NShNF=      180432 NShFF=           0 NBatch=        1611 AvBLen=       112.0
 CoulSu:  NxtVal=        6334465.
 FoFCou: FMM=F IPFlag=           0 FMFlag=      100000 FMFlg1=         800
         NFxFlg=           0 DoJE=F BraDBF=F KetDBF=F FulRan=T
         wScrn=  0.000000 ICntrl=    2127 IOpCl=  1 I1Cent=           0 NGrid=           0
         NMat0=    1 NMatS0=      0 NMatT0=    1 NMatD0=    1 NMtDS0=    0 NMtDT0=    0
         CW=    0.222036    0.777964
         WU=    0.000000   12.500000
 Symmetry not used in FoFCou.
 FoFCou:  KetSym=F NOpSet=  1 NOpAb=1 NOp=  1.
 FoFCou:  CnvScl= 1.00D+00 Thresh= 1.00D-10 IAcrcy=      10.
 PrismS was handed   419072385 working-precision words and  3403 shell-pairs
 FoFCou: LinMIO=F DoNuc=F BraDBF=F KetDBF=F HaveP=T PDBF=F HaveZ=T HaveW=F
         NIJTC =      10 NIJTAt=       0 NIJTCD=       0 NIJTT =      10
         IJTBeg=       1 IJTEnd=      10 KLTBeg=       1 KLTEnd=      10
         IPTBeg=       1 IPTEnd=      10 IPTBCv=       1 IPTECv=      10
         IZTBeg=       1 IZTEnd=      10 IZTBCv=       1 IZTECv=      10
         IWTBeg=      11 IWTEnd=      10 IWTBCv=      11 IWTECv=      10
         INTBeg=       1 INTEnd=       0 IFTBCv=       1 IFTECv=      10
 NCel replicated for PrismC:     1
 CoulSu:  IncDef=  1024 NBBP=        5791906 NTPThr=   100 NPartT=   32 Incr=        1024 LDynOK=F.
 CoulSu:  NPrtUS=  32 ThrOK=T IAlg=1 NPAlg=1 LenDen=           0 LWGrdD=           0 DoCopy=F.
 Enter PrismC: JobTyp=21 DoJE=F Cont=F.
 Linear combination for Coulomb/exchange, wScrn=  0.000000
 CW=    0.222036    0.777964
 WU=    0.000000   12.500000
 PrismC:  IPart=     0 DynPar=T LinDyn=F Incr=        1024 UseFst=F UseS4=T IGathr=2.
 PrismC was handed    13041804 working-precision words and  3403 shell-pairs
 Enter PrismC: JobTyp=21 DoJE=F Cont=F.
 Enter PrismC: JobTyp=21 DoJE=F Cont=F.
 Enter PrismC: JobTyp=21 DoJE=F Cont=F.
 Enter PrismC: JobTyp=21 DoJE=F Cont=F.
 Linear combination for Coulomb/exchange, wScrn=  0.000000
 CW=    0.222036    0.777964
 WU=    0.000000   12.500000
 Enter PrismC: JobTyp=21 DoJE=F Cont=F.
 Linear combination for Coulomb/exchange, wScrn=  0.000000
 CW=    0.222036    0.777964
 WU=    0.000000   12.500000
 Enter PrismC: JobTyp=21 DoJE=F Cont=F.
 Linear combination for Coulomb/exchange, wScrn=  0.000000
 CW=    0.222036    0.777964
 WU=    0.000000   12.500000
 Enter PrismC: JobTyp=21 DoJE=F Cont=F.
 Linear combination for Coulomb/exchange, wScrn=  0.000000
 CW=    0.222036    0.777964
 WU=    0.000000   12.500000
 Enter PrismC: JobTyp=21 DoJE=F Cont=F.
 Linear combination for Coulomb/exchange, wScrn=  0.000000
 CW=    0.222036    0.777964
 WU=    0.000000   12.500000
 Enter PrismC: JobTyp=21 DoJE=F Cont=F.
 Linear combination for Coulomb/exchange, wScrn=  0.000000
 CW=    0.222036    0.777964
 WU=    0.000000   12.500000
 Enter PrismC: JobTyp=21 DoJE=F Cont=F.
 Linear combination for Coulomb/exchange, wScrn=  0.000000
 CW=    0.222036    0.777964
 WU=    0.000000   12.500000
 Linear combination for Coulomb/exchange, wScrn=  0.000000
 CW=    0.222036    0.777964
 WU=    0.000000   12.500000
 Enter PrismC: JobTyp=21 DoJE=F Cont=F.
 Linear combination for Coulomb/exchange, wScrn=  0.000000
 CW=    0.222036    0.777964
 WU=    0.000000   12.500000
 Enter PrismC: JobTyp=21 DoJE=F Cont=F.
 Linear combination for Coulomb/exchange, wScrn=  0.000000
 CW=    0.222036    0.777964
 WU=    0.000000   12.500000
 Enter PrismC: JobTyp=21 DoJE=F Cont=F.
 Linear combination for Coulomb/exchange, wScrn=  0.000000
 CW=    0.222036    0.777964
 WU=    0.000000   12.500000
 Enter PrismC: JobTyp=21 DoJE=F Cont=F.
 Linear combination for Coulomb/exchange, wScrn=  0.000000
 CW=    0.222036    0.777964
 WU=    0.000000   12.500000
 Enter PrismC: JobTyp=21 DoJE=F Cont=F.
 Linear combination for Coulomb/exchange, wScrn=  0.000000
 CW=    0.222036    0.777964
 WU=    0.000000   12.500000
 Enter PrismC: JobTyp=21 DoJE=F Cont=F.
 Linear combination for Coulomb/exchange, wScrn=  0.000000
 CW=    0.222036    0.777964
 WU=    0.000000   12.500000
 Enter PrismC: JobTyp=21 DoJE=F Cont=F.
 Linear combination for Coulomb/exchange, wScrn=  0.000000
 CW=    0.222036    0.777964
 WU=    0.000000   12.500000
 Linear combination for Coulomb/exchange, wScrn=  0.000000
 CW=    0.222036    0.777964
 WU=    0.000000   12.500000
 Enter PrismC: JobTyp=21 DoJE=F Cont=F.
 Linear combination for Coulomb/exchange, wScrn=  0.000000
 CW=    0.222036    0.777964
 WU=    0.000000   12.500000
 Enter PrismC: JobTyp=21 DoJE=F Cont=F.
 Linear combination for Coulomb/exchange, wScrn=  0.000000
 CW=    0.222036    0.777964
 WU=    0.000000   12.500000
 Enter PrismC: JobTyp=21 DoJE=F Cont=F.
 Linear combination for Coulomb/exchange, wScrn=  0.000000
 CW=    0.222036    0.777964
 WU=    0.000000   12.500000
 Enter PrismC: JobTyp=21 DoJE=F Cont=F.
 Linear combination for Coulomb/exchange, wScrn=  0.000000
 CW=    0.222036    0.777964
 WU=    0.000000   12.500000
 Enter PrismC: JobTyp=21 DoJE=F Cont=F.
 Linear combination for Coulomb/exchange, wScrn=  0.000000
 CW=    0.222036    0.777964
 WU=    0.000000   12.500000
 Enter PrismC: JobTyp=21 DoJE=F Cont=F.
 Linear combination for Coulomb/exchange, wScrn=  0.000000
 CW=    0.222036    0.777964
 WU=    0.000000   12.500000
 Enter PrismC: JobTyp=21 DoJE=F Cont=F.
 Linear combination for Coulomb/exchange, wScrn=  0.000000
 CW=    0.222036    0.777964
 WU=    0.000000   12.500000
 Linear combination for Coulomb/exchange, wScrn=  0.000000
 CW=    0.222036    0.777964
 WU=    0.000000   12.500000
 Enter PrismC: JobTyp=21 DoJE=F Cont=F.
 Linear combination for Coulomb/exchange, wScrn=  0.000000
 CW=    0.222036    0.777964
 WU=    0.000000   12.500000
 Enter PrismC: JobTyp=21 DoJE=F Cont=F.
 Linear combination for Coulomb/exchange, wScrn=  0.000000
 CW=    0.222036    0.777964
 WU=    0.000000   12.500000
 Enter PrismC: JobTyp=21 DoJE=F Cont=F.
 Linear combination for Coulomb/exchange, wScrn=  0.000000
 CW=    0.222036    0.777964
 WU=    0.000000   12.500000
 Enter PrismC: JobTyp=21 DoJE=F Cont=F.
 Linear combination for Coulomb/exchange, wScrn=  0.000000
 CW=    0.222036    0.777964
 WU=    0.000000   12.500000
 Enter PrismC: JobTyp=21 DoJE=F Cont=F.
 Linear combination for Coulomb/exchange, wScrn=  0.000000
 CW=    0.222036    0.777964
 WU=    0.000000   12.500000
 Enter PrismC: JobTyp=21 DoJE=F Cont=F.
 Linear combination for Coulomb/exchange, wScrn=  0.000000
 CW=    0.222036    0.777964
 WU=    0.000000   12.500000
 Enter PrismC: JobTyp=21 DoJE=F Cont=F.
 Linear combination for Coulomb/exchange, wScrn=  0.000000
 CW=    0.222036    0.777964
 WU=    0.000000   12.500000
 PrismC was handed    13041804 working-precision words and  3403 shell-pairs
 PrismC was handed    13041804 working-precision words and  3403 shell-pairs
 PrismC was handed    13041804 working-precision words and  3403 shell-pairs
 PrismC was handed    13041804 working-precision words and  3403 shell-pairs
 PrismC was handed    13041804 working-precision words and  3403 shell-pairs
 PrismC was handed    13041804 working-precision words and  3403 shell-pairs
 PrismC was handed    13041804 working-precision words and  3403 shell-pairs
 PrismC was handed    13041804 working-precision words and  3403 shell-pairs
 PrismC was handed    13041804 working-precision words and  3403 shell-pairs
 PrismC was handed    13041804 working-precision words and  3403 shell-pairs
 PrismC was handed    13041804 working-precision words and  3403 shell-pairs
 PrismC was handed    13041804 working-precision words and  3403 shell-pairs
 PrismC was handed    13041804 working-precision words and  3403 shell-pairs
 PrismC was handed    13041804 working-precision words and  3403 shell-pairs
 PrismC was handed    13041804 working-precision words and  3403 shell-pairs
 PrismC was handed    13041804 working-precision words and  3403 shell-pairs
 PrismC was handed    13041804 working-precision words and  3403 shell-pairs
 PrismC was handed    13041804 working-precision words and  3403 shell-pairs
 PrismC was handed    13041804 working-precision words and  3403 shell-pairs
 PrismC was handed    13041804 working-precision words and  3403 shell-pairs
 PrismC was handed    13041804 working-precision words and  3403 shell-pairs
 PrismC was handed    13041804 working-precision words and  3403 shell-pairs
 PrismC was handed    13041804 working-precision words and  3403 shell-pairs
 PrismC was handed    13041804 working-precision words and  3403 shell-pairs
 PrismC was handed    13041804 working-precision words and  3403 shell-pairs
 PrismC was handed    13041804 working-precision words and  3403 shell-pairs
 PrismC was handed    13041804 working-precision words and  3403 shell-pairs
 PrismC was handed    13041804 working-precision words and  3403 shell-pairs
 PrismC was handed    13041804 working-precision words and  3403 shell-pairs
 PrismC was handed    13041804 working-precision words and  3403 shell-pairs
 PrismC was handed    13041804 working-precision words and  3403 shell-pairs
 IPart= 16 NShTot=      183615 NShNF=      183615 NShFF=           0 NBatch=        2002 AvBLen=        91.7
 IPart=  8 NShTot=      173581 NShNF=      173581 NShFF=           0 NBatch=        1991 AvBLen=        87.2
 IPart=  5 NShTot=      178412 NShNF=      178412 NShFF=           0 NBatch=        1934 AvBLen=        92.3
 IPart= 24 NShTot=      185743 NShNF=      185743 NShFF=           0 NBatch=        2009 AvBLen=        92.5
 IPart= 14 NShTot=      189118 NShNF=      189118 NShFF=           0 NBatch=        2012 AvBLen=        94.0
 IPart= 21 NShTot=      183366 NShNF=      183366 NShFF=           0 NBatch=        2004 AvBLen=        91.5
 IPart= 10 NShTot=      169347 NShNF=      169347 NShFF=           0 NBatch=        1956 AvBLen=        86.6
 IPart=  6 NShTot=      159660 NShNF=      159660 NShFF=           0 NBatch=        1931 AvBLen=        82.7
 IPart= 15 NShTot=      170802 NShNF=      170802 NShFF=           0 NBatch=        1998 AvBLen=        85.5
 IPart= 13 NShTot=      185331 NShNF=      185331 NShFF=           0 NBatch=        1921 AvBLen=        96.5
 IPart= 11 NShTot=      185649 NShNF=      185649 NShFF=           0 NBatch=        1924 AvBLen=        96.5
 IPart=  2 NShTot=      170581 NShNF=      170581 NShFF=           0 NBatch=        1973 AvBLen=        86.5
 IPart= 23 NShTot=      169335 NShNF=      169335 NShFF=           0 NBatch=        1989 AvBLen=        85.1
 IPart=  0 NShTot=      169696 NShNF=      169696 NShFF=           0 NBatch=        1674 AvBLen=       101.4
 IPart=  4 NShTot=      182269 NShNF=      182269 NShFF=           0 NBatch=        1981 AvBLen=        92.0
 IPart= 19 NShTot=      192776 NShNF=      192776 NShFF=           0 NBatch=        2109 AvBLen=        91.4
 IPart= 12 NShTot=      177708 NShNF=      177708 NShFF=           0 NBatch=        1993 AvBLen=        89.2
 IPart= 17 NShTot=      177071 NShNF=      177071 NShFF=           0 NBatch=        1894 AvBLen=        93.5
 IPart=  1 NShTot=      169527 NShNF=      169527 NShFF=           0 NBatch=        1820 AvBLen=        93.1
 IPart= 31 NShTot=      169963 NShNF=      169963 NShFF=           0 NBatch=        1886 AvBLen=        90.1
 IPart= 22 NShTot=      179304 NShNF=      179304 NShFF=           0 NBatch=        1979 AvBLen=        90.6
 IPart=  7 NShTot=      159835 NShNF=      159835 NShFF=           0 NBatch=        1888 AvBLen=        84.7
 IPart= 27 NShTot=      179996 NShNF=      179996 NShFF=           0 NBatch=        1977 AvBLen=        91.0
 IPart= 18 NShTot=      181584 NShNF=      181584 NShFF=           0 NBatch=        2041 AvBLen=        89.0
 IPart=  3 NShTot=      168940 NShNF=      168940 NShFF=           0 NBatch=        1954 AvBLen=        86.5
 IPart= 28 NShTot=      180081 NShNF=      180081 NShFF=           0 NBatch=        1822 AvBLen=        98.8
 IPart= 29 NShTot=      189769 NShNF=      189769 NShFF=           0 NBatch=        1866 AvBLen=       101.7
 IPart= 26 NShTot=      172839 NShNF=      172839 NShFF=           0 NBatch=        1944 AvBLen=        88.9
 IPart=  9 NShTot=      193115 NShNF=      193115 NShFF=           0 NBatch=        1986 AvBLen=        97.2
 IPart= 25 NShTot=      177820 NShNF=      177820 NShFF=           0 NBatch=        1937 AvBLen=        91.8
 IPart= 30 NShTot=      181004 NShNF=      181004 NShFF=           0 NBatch=        1950 AvBLen=        92.8
 IPart= 20 NShTot=      173096 NShNF=      173096 NShFF=           0 NBatch=        1938 AvBLen=        89.3
 CoulSu:  NxtVal=        6334465.
 ReadGW:  IGet=0 IStart=           1 Next=           1 LGW=           0.
 Remaining memory in FofDFT      399.87 Mw
 CkSvGd:  ISavGI=        -1 IRadAn=       5 IRASav=       5 ISavGd=        -1.
 CalDSu:  NPrtUS=  32 ThrOK=T IAlg=1 NPAlg=2 DoDPD=T LenP=       33930 LenD1P=             0.
 IPart=  0 IRanGd=          0 ScrnBf=T ScrnGd=T RCrit=4.00D+00 DoMicB=T.
 IPart= 11         4909 of         5296 points in       5 batches and       14 microbatches, Max-NSigAt=       8 Max-NSgAt2=       8
 IPart= 20         6408 of         8014 points in      10 batches and       32 microbatches, Max-NSigAt=       8 Max-NSgAt2=       8
 IPart=  1         5115 of         5922 points in       7 batches and       40 microbatches, Max-NSigAt=       8 Max-NSgAt2=       8
 IPart= 30         5092 of         5552 points in       6 batches and       21 microbatches, Max-NSigAt=       8 Max-NSgAt2=       8
 IPart= 24         5090 of         5746 points in       6 batches and       25 microbatches, Max-NSigAt=       8 Max-NSgAt2=       8
 IPart= 31         5259 of         5878 points in       7 batches and       22 microbatches, Max-NSigAt=       8 Max-NSgAt2=       8
 IPart=  0         4468 of         4732 points in       5 batches and       23 microbatches, Max-NSigAt=       8 Max-NSgAt2=       8
 IPart=  5         5388 of         6064 points in       7 batches and       23 microbatches, Max-NSigAt=       8 Max-NSgAt2=       8
 IPart= 14         5108 of         5694 points in       6 batches and       26 microbatches, Max-NSigAt=       8 Max-NSgAt2=       8
 IPart= 12         5376 of         6092 points in       7 batches and       51 microbatches, Max-NSigAt=       8 Max-NSgAt2=       8
 IPart= 19         5217 of         5894 points in       7 batches and       32 microbatches, Max-NSigAt=       8 Max-NSgAt2=       8
 IPart=  6         4802 of         5090 points in       5 batches and       22 microbatches, Max-NSigAt=       8 Max-NSgAt2=       8
 IPart=  3         4720 of         5120 points in       6 batches and       33 microbatches, Max-NSigAt=       8 Max-NSgAt2=       8
 IPart= 21         4458 of         4934 points in       6 batches and       31 microbatches, Max-NSigAt=       8 Max-NSgAt2=       8
 IPart= 25         4984 of         5592 points in       7 batches and       37 microbatches, Max-NSigAt=       8 Max-NSgAt2=       8
 IPart= 29         5710 of         6902 points in       8 batches and       25 microbatches, Max-NSigAt=       8 Max-NSgAt2=       8
 IPart=  4         5107 of         5580 points in       6 batches and       27 microbatches, Max-NSigAt=       8 Max-NSgAt2=       8
 IPart= 13         5270 of         5694 points in       6 batches and       28 microbatches, Max-NSigAt=       8 Max-NSgAt2=       8
 IPart= 10         4785 of         5090 points in       5 batches and       25 microbatches, Max-NSigAt=       8 Max-NSgAt2=       8
 IPart=  2         4559 of         4934 points in       5 batches and       21 microbatches, Max-NSigAt=       8 Max-NSgAt2=       8
 IPart=  8         5148 of         5694 points in       6 batches and       25 microbatches, Max-NSigAt=       8 Max-NSgAt2=       8
 IPart= 17         4984 of         5324 points in       5 batches and       23 microbatches, Max-NSigAt=       8 Max-NSgAt2=       8
 IPart=  9         4996 of         5348 points in       5 batches and       22 microbatches, Max-NSigAt=       8 Max-NSgAt2=       8
 IPart= 22         5730 of         6732 points in       8 batches and       48 microbatches, Max-NSigAt=       8 Max-NSgAt2=       8
 IPart= 26         5055 of         5352 points in       5 batches and       24 microbatches, Max-NSigAt=       8 Max-NSgAt2=       8
 IPart=  7         5083 of         5376 points in       5 batches and       22 microbatches, Max-NSigAt=       8 Max-NSgAt2=       8
 IPart= 18         5889 of         6560 points in       7 batches and       45 microbatches, Max-NSigAt=       8 Max-NSgAt2=       8
 IPart= 23         5375 of         5928 points in       6 batches and       29 microbatches, Max-NSigAt=       8 Max-NSgAt2=       8
 IPart= 28         5268 of         5956 points in       6 batches and       47 microbatches, Max-NSigAt=       8 Max-NSgAt2=       8
 IPart= 16         4145 of         4804 points in       6 batches and       54 microbatches, Max-NSigAt=       8 Max-NSgAt2=       8
 IPart= 27         5771 of         6756 points in       8 batches and       55 microbatches, Max-NSigAt=       8 Max-NSgAt2=       8
 IPart= 15         5679 of         6354 points in       8 batches and       36 microbatches, Max-NSigAt=       8 Max-NSgAt2=       8
 Forces at end of L703
 I=    0 X=   3.992138131951D-02 Y=  -6.377898008478D-02 Z=   9.607385956151D-02
 I=    1 X=   3.273159653528D-02 Y=   5.840669905040D-02 Z=  -1.270277755340D-02
 I=    2 X=  -1.265446961534D-03 Y=  -9.981406791213D-03 Z=  -8.137523039187D-05
 I=    3 X=   6.316753147617D-04 Y=  -3.698586393241D-03 Z=   7.236189455799D-04
 I=    4 X=   4.972708091651D-04 Y=  -7.011468651181D-02 Z=  -1.693656452285D-02
 I=    5 X=  -5.088836861542D-02 Y=  -3.888091910508D-02 Z=  -2.621937310724D-02
 I=    6 X=   8.537940022872D-04 Y=   2.104142943021D-04 Z=   2.008072447197D-03
 I=    7 X=   5.018500241849D-03 Y=   8.661543421265D-03 Z=   8.130804445435D-03
 I=    8 X=   1.242097867361D-02 Y=   5.539694203538D-02 Z=   4.507759457567D-02
 FrcOut:
 IF    =    45 IFX   =    69 IFXYZ =    93
 IFFX  =   117 IFFFX =   417 IFLen =    24
 IFFLen=   300 IFFFLn=     0 IEDerv=   417
 LEDerv=  1205 IFroze=  1904 ICStrt=108261
 FCEst1:  Generated internal coordinate force constants:
                1             2             3             4             5 
      1  0.768580D+00
      2  0.468768D-01  0.271222D+00
      3 -0.338059D-02  0.299371D-01  0.774894D+00
      4 -0.126779D+00 -0.159387D-01  0.878913D-02  0.862150D-01
      5 -0.160333D-01 -0.695028D-01  0.184562D-01  0.141807D-01  0.428188D-01
      6  0.000000D+00  0.000000D+00 -0.362127D+00  0.000000D+00  0.000000D+00
      7 -0.299316D+00 -0.818682D-02  0.993085D-01  0.193485D-01 -0.104740D-03
      8  0.766317D-02 -0.675497D-01 -0.234133D-01 -0.209656D-03  0.110338D-01
      9  0.108914D+00 -0.141960D-01 -0.189926D+00  0.335503D-01 -0.181618D-03
     10 -0.300785D+00 -0.378598D-03 -0.105204D+00  0.194774D-01  0.502167D-04
     11 -0.160541D-01 -0.607666D-01 -0.103083D-01  0.714053D-04  0.108412D-01
     12 -0.106064D+00 -0.109612D-02 -0.180001D+00 -0.337079D-01 -0.149907D-03
     13 -0.485385D-01 -0.192629D-01  0.921556D-03  0.163265D-02  0.195718D-02
     14 -0.193453D-01 -0.741474D-01 -0.169897D-01  0.193974D-02  0.478839D-02
     15  0.991991D-03 -0.169491D-01 -0.362262D-01 -0.861070D-02 -0.181346D-01
     16 -0.281232D-02  0.767908D-03  0.179903D-02 -0.189282D-03  0.898591D-04
     17 -0.159958D-01  0.479096D-02  0.888980D-02  0.231967D-03 -0.110123D-03
     18 -0.668607D-02  0.182541D-02  0.427779D-02 -0.450730D-03  0.213978D-03
     19  0.954948D-02 -0.589242D-02  0.431017D-02 -0.248660D-03  0.118048D-03
     20  0.120937D-01 -0.758259D-02  0.583998D-02 -0.304569D-04  0.144590D-04
     21  0.543065D-02 -0.360986D-02  0.327241D-02  0.471019D-03 -0.223610D-03
     22  0.101829D-03  0.201478D-02 -0.654369D-02  0.543457D-03 -0.257999D-03
     23  0.794779D-03  0.353593D-02 -0.124118D-01 -0.245026D-03  0.116323D-03
     24  0.794526D-03  0.408849D-02 -0.141640D-01 -0.411463D-04  0.195336D-04
                6             7             8             9            10 
      6  0.362127D+00
      7  0.000000D+00  0.293464D+00
      8  0.000000D+00  0.740082D-02  0.419737D-01
      9  0.000000D+00 -0.119062D+00  0.128330D-01  0.155673D+00
     10  0.000000D+00 -0.973099D-02 -0.909297D-04 -0.168735D-01  0.291536D+00
     11  0.000000D+00  0.218140D-04  0.108396D-01  0.378256D-04  0.156280D-03
     12  0.000000D+00  0.168403D-01  0.943697D-04  0.292011D-01  0.122163D+00
     13  0.000000D+00 -0.371381D-02 -0.148158D-01 -0.643974D-02 -0.432742D-03
     14  0.000000D+00  0.847789D-03  0.372428D-02  0.147007D-02  0.236347D-03
     15  0.000000D+00  0.290307D-02  0.104963D-01  0.503392D-02 -0.980328D-04
     16  0.000000D+00  0.919338D-04 -0.939048D-04  0.159413D-03  0.116069D-03
     17  0.000000D+00 -0.112666D-03  0.115081D-03 -0.195362D-03 -0.142244D-03
     18  0.000000D+00  0.218918D-03 -0.223612D-03  0.379605D-03  0.276391D-03
     19  0.000000D+00  0.120774D-03 -0.123363D-03  0.209421D-03  0.152480D-03
     20  0.000000D+00  0.147928D-04 -0.151100D-04  0.256508D-04  0.186764D-04
     21  0.000000D+00 -0.228773D-03  0.233678D-03 -0.396692D-03 -0.288833D-03
     22  0.000000D+00 -0.263956D-03  0.269614D-03 -0.457699D-03 -0.333252D-03
     23  0.000000D+00  0.119009D-03 -0.121560D-03  0.206361D-03  0.150252D-03
     24  0.000000D+00  0.199847D-04 -0.204131D-04  0.346534D-04  0.252312D-04
               11            12            13            14            15 
     11  0.493391D-01
     12  0.154727D-02  0.150703D+00
     13  0.158092D-01  0.657029D-03  0.740433D+00
     14 -0.102552D-01 -0.349424D-03 -0.760962D-01  0.613253D+00
     15  0.872227D-02  0.118967D-03 -0.109289D+00 -0.221581D+00  0.461058D+00
     16  0.824356D-05 -0.200917D-03 -0.316330D+00  0.963603D-02  0.100668D+00
     17 -0.101026D-04  0.246226D-03  0.265887D-01 -0.119195D+00  0.157209D-01
     18  0.196301D-04 -0.478435D-03  0.109008D+00  0.228044D-01 -0.122488D+00
     19  0.108296D-04 -0.263945D-03 -0.242650D+00  0.116573D+00 -0.447801D-01
     20  0.132645D-05 -0.323290D-04  0.984389D-01 -0.206881D+00  0.733285D-01
     21 -0.205137D-04  0.499972D-03 -0.458851D-01  0.826857D-01 -0.107617D+00
     22 -0.236685D-04  0.576862D-03 -0.130401D+00 -0.337918D-01  0.582146D-01
     23  0.106713D-04 -0.260087D-03 -0.326191D-01 -0.211287D+00  0.148396D+00
     24  0.179199D-05 -0.436755D-04  0.510269D-01  0.131960D+00 -0.199879D+00
               16            17            18            19            20 
     16  0.314784D+00
     17 -0.720372D-02  0.825174D-01
     18 -0.112700D+00 -0.169937D-01  0.938460D-01
     19 -0.544113D-02  0.222708D-01 -0.129654D-01  0.213347D+00
     20 -0.156594D-02  0.158896D-01 -0.373667D-02 -0.124810D+00  0.200040D+00
     21  0.837015D-02 -0.138486D-01  0.199335D-01  0.523415D-01 -0.796415D-01
     22  0.978091D-02 -0.256370D-01  0.232985D-01  0.251694D-01  0.158400D-01
     23 -0.163847D-02  0.160018D-01 -0.390940D-02 -0.814760D-02 -0.146646D-02
     24  0.190411D-02  0.618073D-02  0.452944D-02  0.114841D-02  0.421636D-02
               21            22            23            24 
     21  0.777086D-01
     22 -0.202106D-01  0.954024D-01
     23  0.144247D-01  0.415861D-01  0.193211D+00
     24  0.659966D-02 -0.548780D-01 -0.146446D+00  0.202923D+00
 Quadrupole    = 1.15680556D+00-1.11593598D+00-4.08695796D-02
                -6.71120828D-02-5.24786346D-01-9.13917709D-01
 -------------------------------------------------------------------
 Center     Atomic                   Forces (Hartrees/Bohr)
 Number     Number              X              Y              Z
 -------------------------------------------------------------------
      1        6          -0.032731597   -0.058406699    0.012702778
      2        1           0.001265447    0.009981407    0.000081375
      3        1          -0.000631675    0.003698586   -0.000723619
      4        1          -0.000497271    0.070114687    0.016936565
      5        6           0.050888369    0.038880919    0.026219373
      6        1          -0.000853794   -0.000210414   -0.002008072
      7        1          -0.005018500   -0.008661543   -0.008130804
      8        1          -0.012420979   -0.055396942   -0.045077595
 -------------------------------------------------------------------
 Cartesian Forces:  Max     0.070114687 RMS     0.028995750
 From PutF, contents of force:
   1   -0.1026782379D+00
   2    0.2081976634D-01
   3   -0.8670875818D-01
   4   -0.1171515109D+00
   5   -0.3454428936D-01
   6    0.1236958397D+00
   7    0.9424888840D-05
   8   -0.9728082712D-04
   9   -0.8541795302D-02
  10   -0.3357464509D-02
  11    0.2421830522D-01
  12   -0.1252535107D+00
  13   -0.3014572439D-01
  14    0.1920182769D-02
  15   -0.8246883301D-02
  16   -0.1856963271D-03
  17    0.8137523039D-04
  18    0.1655636401D-01
 -----------------------------------------------------------------------------------------------
                       Internal Coordinate Forces (Hartree/Bohr or radian)
  Cent   Atom   N1       Length/X         N2         Alpha/Y        N3         Beta/Z          J
 -----------------------------------------------------------------------------------------------
      1  C 
      2  H        1   0.000081(     1)
      3  H        1  -0.000186(     2)      2   0.001920(     8)
      4  H        1  -0.008247(     3)      2  -0.030146(     9)      3   0.123696(    14)     0
      5  C        1   0.016556(     4)      2  -0.034544(    10)      3  -0.117152(    15)     0
      6  H        5   0.000009(     5)      1  -0.086709(    11)      2   0.020820(    16)     0
      7  H        5  -0.000097(     6)      6  -0.003357(    12)      1  -0.102678(    17)     0
      8  H        5  -0.008542(     7)      6   0.024218(    13)      7  -0.125254(    18)     0
 -----------------------------------------------------------------------------------------------
 Internal  Forces:  Max     0.125253511 RMS     0.060702813
 Force constants in Cartesian coordinates: 
                1             2             3             4             5 
      1  0.768580D+00
      2  0.468768D-01  0.271222D+00
      3 -0.338059D-02  0.299371D-01  0.774894D+00
      4 -0.126779D+00 -0.159387D-01  0.878913D-02  0.862150D-01
      5 -0.160333D-01 -0.695028D-01  0.184562D-01  0.141807D-01  0.428188D-01
      6  0.000000D+00  0.000000D+00 -0.362127D+00  0.000000D+00  0.000000D+00
      7 -0.299316D+00 -0.818682D-02  0.993085D-01  0.193485D-01 -0.104740D-03
      8  0.766317D-02 -0.675497D-01 -0.234133D-01 -0.209656D-03  0.110338D-01
      9  0.108914D+00 -0.141960D-01 -0.189926D+00  0.335503D-01 -0.181618D-03
     10 -0.300785D+00 -0.378598D-03 -0.105204D+00  0.194774D-01  0.502167D-04
     11 -0.160541D-01 -0.607666D-01 -0.103083D-01  0.714053D-04  0.108412D-01
     12 -0.106064D+00 -0.109612D-02 -0.180001D+00 -0.337079D-01 -0.149907D-03
     13 -0.485385D-01 -0.192629D-01  0.921556D-03  0.163265D-02  0.195718D-02
     14 -0.193453D-01 -0.741474D-01 -0.169897D-01  0.193974D-02  0.478839D-02
     15  0.991991D-03 -0.169491D-01 -0.362262D-01 -0.861070D-02 -0.181346D-01
     16 -0.281232D-02  0.767908D-03  0.179903D-02 -0.189282D-03  0.898591D-04
     17 -0.159958D-01  0.479096D-02  0.888980D-02  0.231967D-03 -0.110123D-03
     18 -0.668607D-02  0.182541D-02  0.427779D-02 -0.450730D-03  0.213978D-03
     19  0.954948D-02 -0.589242D-02  0.431017D-02 -0.248660D-03  0.118048D-03
     20  0.120937D-01 -0.758259D-02  0.583998D-02 -0.304569D-04  0.144590D-04
     21  0.543065D-02 -0.360986D-02  0.327241D-02  0.471019D-03 -0.223610D-03
     22  0.101829D-03  0.201478D-02 -0.654369D-02  0.543457D-03 -0.257999D-03
     23  0.794779D-03  0.353593D-02 -0.124118D-01 -0.245026D-03  0.116323D-03
     24  0.794526D-03  0.408849D-02 -0.141640D-01 -0.411463D-04  0.195336D-04
                6             7             8             9            10 
      6  0.362127D+00
      7  0.000000D+00  0.293464D+00
      8  0.000000D+00  0.740082D-02  0.419737D-01
      9  0.000000D+00 -0.119062D+00  0.128330D-01  0.155673D+00
     10  0.000000D+00 -0.973099D-02 -0.909297D-04 -0.168735D-01  0.291536D+00
     11  0.000000D+00  0.218140D-04  0.108396D-01  0.378256D-04  0.156280D-03
     12  0.000000D+00  0.168403D-01  0.943697D-04  0.292011D-01  0.122163D+00
     13  0.000000D+00 -0.371381D-02 -0.148158D-01 -0.643974D-02 -0.432742D-03
     14  0.000000D+00  0.847789D-03  0.372428D-02  0.147007D-02  0.236347D-03
     15  0.000000D+00  0.290307D-02  0.104963D-01  0.503392D-02 -0.980328D-04
     16  0.000000D+00  0.919338D-04 -0.939048D-04  0.159413D-03  0.116069D-03
     17  0.000000D+00 -0.112666D-03  0.115081D-03 -0.195362D-03 -0.142244D-03
     18  0.000000D+00  0.218918D-03 -0.223612D-03  0.379605D-03  0.276391D-03
     19  0.000000D+00  0.120774D-03 -0.123363D-03  0.209421D-03  0.152480D-03
     20  0.000000D+00  0.147928D-04 -0.151100D-04  0.256508D-04  0.186764D-04
     21  0.000000D+00 -0.228773D-03  0.233678D-03 -0.396692D-03 -0.288833D-03
     22  0.000000D+00 -0.263956D-03  0.269614D-03 -0.457699D-03 -0.333252D-03
     23  0.000000D+00  0.119009D-03 -0.121560D-03  0.206361D-03  0.150252D-03
     24  0.000000D+00  0.199847D-04 -0.204131D-04  0.346534D-04  0.252312D-04
               11            12            13            14            15 
     11  0.493391D-01
     12  0.154727D-02  0.150703D+00
     13  0.158092D-01  0.657029D-03  0.740433D+00
     14 -0.102552D-01 -0.349424D-03 -0.760962D-01  0.613253D+00
     15  0.872227D-02  0.118967D-03 -0.109289D+00 -0.221581D+00  0.461058D+00
     16  0.824356D-05 -0.200917D-03 -0.316330D+00  0.963603D-02  0.100668D+00
     17 -0.101026D-04  0.246226D-03  0.265887D-01 -0.119195D+00  0.157209D-01
     18  0.196301D-04 -0.478435D-03  0.109008D+00  0.228044D-01 -0.122488D+00
     19  0.108296D-04 -0.263945D-03 -0.242650D+00  0.116573D+00 -0.447801D-01
     20  0.132645D-05 -0.323290D-04  0.984389D-01 -0.206881D+00  0.733285D-01
     21 -0.205137D-04  0.499972D-03 -0.458851D-01  0.826857D-01 -0.107617D+00
     22 -0.236685D-04  0.576862D-03 -0.130401D+00 -0.337918D-01  0.582146D-01
     23  0.106713D-04 -0.260087D-03 -0.326191D-01 -0.211287D+00  0.148396D+00
     24  0.179199D-05 -0.436755D-04  0.510269D-01  0.131960D+00 -0.199879D+00
               16            17            18            19            20 
     16  0.314784D+00
     17 -0.720372D-02  0.825174D-01
[...]
      1      1  C 
      2      2  H        1   1.078200(     1)
      3      3  H        1   1.078200(     2)      2  119.972(     8)
      4      4  H        1   1.078200(     3)      2  120.021(     9)      3  179.808(    14)      0
      5      5  C        1   2.000000(     4)      2   89.958(    10)      3   89.892(    15)      0
      6      6  H        5   1.078200(     5)      1   90.063(    11)      2   59.975(    16)      0
      7      7  H        5   1.078200(     6)      6  119.972(    12)      1   90.100(    17)      0
      8      8  H        5   1.078200(     7)      6  120.021(    13)      7  179.808(    18)      0
 ---------------------------------------------------------------------------------------------------
                         Z-Matrix orientation:                         
 ---------------------------------------------------------------------
 Center     Atomic      Atomic             Coordinates (Angstroms)
 Number     Number       Type             X           Y           Z
 ---------------------------------------------------------------------
      1          6           0        0.000000    0.000000    0.000000
      2          1           0        0.000000    0.000000    1.078200
      3          1           0        0.934011    0.000000   -0.538645
      4          1           0       -0.933548   -0.003135   -0.539437
      5          6           0        0.003761   -1.999996    0.001481
      6          1           0       -0.929747   -2.002542    0.540992
      7          1           0        0.937484   -1.998882    0.540625
      8          1           0        0.003683   -2.001699   -1.076717
 ---------------------------------------------------------------------
                    Distance matrix (angstroms):
                    1          2          3          4          5
     1  C    0.000000
     2  H    1.078200   0.000000
     3  H    1.078200   1.867235   0.000000
     4  H    1.078200   1.867692   1.867562   0.000000
     5  C    2.000000   2.271414   2.270922   2.271254   0.000000
     6  H    2.273165   2.272267   2.940984   2.272657   1.078200
     7  H    2.273034   2.272310   2.271644   2.941140   1.078200
     8  H    2.272912   2.941170   2.271966   2.271856   1.078200
                    6          7          8
     6  H    0.000000
     7  H    1.867235   0.000000
     8  H    1.867692   1.867562   0.000000
 Symmetry turned off by external request.
 Stoichiometry    C2H6
 Framework group  C1[X(C2H6)]
 Deg. of freedom    18
 Full point group                 C1      NOp   1
 Rotational constants (GHZ):     71.8923318     15.0583969     15.0579368

 **********************************************************************

            Population analysis using the SCF density.

 **********************************************************************

 Alpha  occ. eigenvalues --  -10.28872 -10.28865  -0.81900  -0.71409  -0.53045
 Alpha  occ. eigenvalues --   -0.53041  -0.46651  -0.46647  -0.32207
 Alpha virt. eigenvalues --    0.03286   0.04420   0.04522   0.04523   0.07141
 Alpha virt. eigenvalues --    0.07141   0.08942   0.10171   0.11495   0.11496
 Alpha virt. eigenvalues --    0.12955   0.14105   0.14106   0.15127   0.17562
 Alpha virt. eigenvalues --    0.19170   0.19171   0.24280   0.24281   0.26397
 Alpha virt. eigenvalues --    0.26399   0.26838   0.29584   0.30346   0.30347
 Alpha virt. eigenvalues --    0.31427   0.35271   0.35271   0.35948   0.37393
 Alpha virt. eigenvalues --    0.39576   0.39577   0.39898   0.39929   0.40365
 Alpha virt. eigenvalues --    0.40495   0.40496   0.41754   0.41754   0.43425
 Alpha virt. eigenvalues --    0.43429   0.43695   0.47634   0.47636   0.47694
 Alpha virt. eigenvalues --    0.47697   0.50619   0.52303   0.52303   0.63815
 Alpha virt. eigenvalues --    0.68150   0.69845   0.69846   0.71535   0.72849
 Alpha virt. eigenvalues --    0.72853   0.75026   0.77216   0.77219   0.79458
 Alpha virt. eigenvalues --    0.80969   0.80971   0.83953   0.83954   0.85118
 Alpha virt. eigenvalues --    0.85121   0.86306   0.86967   0.87407   0.90664
 Alpha virt. eigenvalues --    0.90665   0.95516   1.00542   1.00542   1.02834
 Alpha virt. eigenvalues --    1.04959   1.05372   1.05374   1.06287   1.06287
 Alpha virt. eigenvalues --    1.12825   1.12826   1.13818   1.17769   1.17770
 Alpha virt. eigenvalues --    1.18847   1.20352   1.20356   1.22457   1.22459
 Alpha virt. eigenvalues --    1.31099   1.32083   1.35917   1.35918   1.37409
 Alpha virt. eigenvalues --    1.37412   1.40129   1.42278   1.42284   1.46149
 Alpha virt. eigenvalues --    1.49635   1.52462   1.52471   1.54931   1.55592
 Alpha virt. eigenvalues --    1.57523   1.57524   1.57737   1.59297   1.59303
 Alpha virt. eigenvalues --    1.65764   1.65767   1.66465   1.68509   1.74876
 Alpha virt. eigenvalues --    1.74877   1.75752   1.82143   1.82147   1.82675
 Alpha virt. eigenvalues --    1.82679   1.90351   1.91455   2.00501   2.00502
 Alpha virt. eigenvalues --    2.05952   2.06658   2.06666   2.09988   2.09996
 Alpha virt. eigenvalues --    2.14621   2.14631   2.21382   2.24699   2.45362
 Alpha virt. eigenvalues --    2.86765   2.95625   2.95632   2.97633   2.97633
 Alpha virt. eigenvalues --    3.00420   3.13104   3.21325   3.21330   3.23671
 Alpha virt. eigenvalues --    3.33683   3.33690   3.34255   3.34256   3.35092
 Alpha virt. eigenvalues --    3.43651   3.45124   3.45158   3.45163   3.51227
 Alpha virt. eigenvalues --    3.55909   3.55909   3.66508   3.66508   3.75257
 Alpha virt. eigenvalues --    3.75264   3.75857   3.75858   3.76776   3.81924
 Alpha virt. eigenvalues --    3.82536   3.82543   3.91580   3.95166   4.00683
 Alpha virt. eigenvalues --    4.00684   4.05178   4.05179   4.07377   4.18106
 Alpha virt. eigenvalues --    4.21366   4.21379   4.23063   4.23077   4.35994
 Alpha virt. eigenvalues --    4.38407   4.38413   4.57504   4.60217   4.60220
 Alpha virt. eigenvalues --    4.65600   4.65602   4.71244   4.71255   4.74056
 Alpha virt. eigenvalues --    4.78566   4.86102   4.86109   4.87913   4.94569
 Alpha virt. eigenvalues --    4.94756   4.95942   5.04906   5.04931   5.10324
 Alpha virt. eigenvalues --    5.10352   5.18971   5.18979   5.21973   5.21978
 Alpha virt. eigenvalues --    5.40098   5.40102   5.42568   5.42571   5.45779
 Alpha virt. eigenvalues --    5.59003   6.15639   6.21602   6.24533   6.24555
 Alpha virt. eigenvalues --    6.36710   6.36729   6.38143   6.53689  16.12588
 Alpha virt. eigenvalues --   17.15595
  Beta  occ. eigenvalues --  -10.28872 -10.28865  -0.81900  -0.71409  -0.53045
  Beta  occ. eigenvalues --   -0.53041  -0.46651  -0.46647  -0.32207
  Beta virt. eigenvalues --    0.03286   0.04420   0.04522   0.04523   0.07141
  Beta virt. eigenvalues --    0.07141   0.08942   0.10171   0.11495   0.11496
  Beta virt. eigenvalues --    0.12955   0.14105   0.14106   0.15127   0.17562
  Beta virt. eigenvalues --    0.19170   0.19171   0.24280   0.24281   0.26397
  Beta virt. eigenvalues --    0.26399   0.26838   0.29584   0.30346   0.30347
  Beta virt. eigenvalues --    0.31427   0.35271   0.35271   0.35948   0.37393
  Beta virt. eigenvalues --    0.39576   0.39577   0.39898   0.39929   0.40365
  Beta virt. eigenvalues --    0.40495   0.40496   0.41754   0.41754   0.43425
  Beta virt. eigenvalues --    0.43429   0.43695   0.47634   0.47636   0.47694
  Beta virt. eigenvalues --    0.47697   0.50619   0.52303   0.52303   0.63815
  Beta virt. eigenvalues --    0.68150   0.69845   0.69846   0.71535   0.72849
  Beta virt. eigenvalues --    0.72853   0.75026   0.77216   0.77219   0.79458
  Beta virt. eigenvalues --    0.80969   0.80971   0.83953   0.83954   0.85118
  Beta virt. eigenvalues --    0.85121   0.86306   0.86967   0.87407   0.90664
  Beta virt. eigenvalues --    0.90665   0.95516   1.00542   1.00542   1.02834
  Beta virt. eigenvalues --    1.04959   1.05372   1.05374   1.06287   1.06287
  Beta virt. eigenvalues --    1.12825   1.12826   1.13818   1.17769   1.17770
  Beta virt. eigenvalues --    1.18847   1.20352   1.20356   1.22457   1.22459
  Beta virt. eigenvalues --    1.31099   1.32083   1.35917   1.35918   1.37409
  Beta virt. eigenvalues --    1.37412   1.40129   1.42278   1.42284   1.46149
  Beta virt. eigenvalues --    1.49635   1.52462   1.52471   1.54931   1.55592
  Beta virt. eigenvalues --    1.57523   1.57524   1.57737   1.59297   1.59303
  Beta virt. eigenvalues --    1.65764   1.65767   1.66465   1.68509   1.74876
  Beta virt. eigenvalues --    1.74877   1.75752   1.82143   1.82147   1.82675
  Beta virt. eigenvalues --    1.82679   1.90351   1.91455   2.00501   2.00502
  Beta virt. eigenvalues --    2.05952   2.06658   2.06666   2.09988   2.09996
  Beta virt. eigenvalues --    2.14621   2.14631   2.21382   2.24699   2.45362
  Beta virt. eigenvalues --    2.86765   2.95625   2.95632   2.97633   2.97633
  Beta virt. eigenvalues --    3.00420   3.13104   3.21325   3.21330   3.23671
  Beta virt. eigenvalues --    3.33683   3.33690   3.34255   3.34256   3.35092
  Beta virt. eigenvalues --    3.43651   3.45124   3.45158   3.45163   3.51227
  Beta virt. eigenvalues --    3.55909   3.55909   3.66508   3.66508   3.75257
  Beta virt. eigenvalues --    3.75264   3.75857   3.75858   3.76776   3.81924
  Beta virt. eigenvalues --    3.82536   3.82543   3.91580   3.95166   4.00683
  Beta virt. eigenvalues --    4.00684   4.05178   4.05179   4.07377   4.18106
  Beta virt. eigenvalues --    4.21366   4.21379   4.23063   4.23077   4.35994
  Beta virt. eigenvalues --    4.38407   4.38413   4.57504   4.60217   4.60220
  Beta virt. eigenvalues --    4.65600   4.65602   4.71244   4.71255   4.74056
  Beta virt. eigenvalues --    4.78566   4.86102   4.86109   4.87913   4.94569
  Beta virt. eigenvalues --    4.94756   4.95942   5.04906   5.04931   5.10324
  Beta virt. eigenvalues --    5.10352   5.18971   5.18979   5.21973   5.21978
  Beta virt. eigenvalues --    5.40098   5.40102   5.42568   5.42571   5.45779
  Beta virt. eigenvalues --    5.59003   6.15639   6.21602   6.24533   6.24555
  Beta virt. eigenvalues --    6.36710   6.36729   6.38143   6.53689  16.12588
  Beta virt. eigenvalues --   17.15595
          Condensed to atoms (all electrons):
               1          2          3          4          5          6
     1  C    5.936945   0.339655   0.339609   0.339585   0.037924   0.012162
     2  H    0.339655   0.275351   0.011670   0.011662   0.012481   0.002611
     3  H    0.339609   0.011670   0.275292   0.011666   0.012459   0.000591
     4  H    0.339585   0.011662   0.011666   0.275320   0.012480   0.002617
     5  C    0.037924   0.012481   0.012459   0.012480   5.935285   0.339982
     6  H    0.012162   0.002611   0.000591   0.002617   0.339982   0.275298
     7  H    0.012150   0.002613   0.002608   0.000592   0.339987   0.011636
     8  H    0.012156   0.000594   0.002614   0.002613   0.339969   0.011628
               7          8
     1  C    0.012150   0.012156
     2  H    0.002613   0.000594
     3  H    0.002608   0.002614
     4  H    0.000592   0.002613
     5  C    0.339987   0.339969
     6  H    0.011636   0.011628
     7  H    0.275297   0.011633
     8  H    0.011633   0.275314
          Atomic-Atomic Spin Densities.
               1          2          3          4          5          6
     1  C    0.000001  -0.000000  -0.000000  -0.000000  -0.000000   0.000000
     2  H   -0.000000  -0.000000   0.000000   0.000000   0.000000   0.000000
     3  H   -0.000000   0.000000  -0.000000   0.000000   0.000000   0.000000
     4  H   -0.000000   0.000000   0.000000  -0.000000   0.000000   0.000000
     5  C   -0.000000   0.000000   0.000000   0.000000   0.000001  -0.000000
     6  H    0.000000   0.000000   0.000000   0.000000  -0.000000  -0.000000
     7  H    0.000000   0.000000   0.000000   0.000000  -0.000000   0.000000
     8  H    0.000000   0.000000   0.000000   0.000000  -0.000000   0.000000
               7          8
     1  C    0.000000   0.000000
     2  H    0.000000   0.000000
     3  H    0.000000   0.000000
     4  H    0.000000   0.000000
     5  C   -0.000000  -0.000000
     6  H    0.000000   0.000000
     7  H   -0.000000   0.000000
     8  H    0.000000  -0.000000
 Mulliken charges and spin densities:
               1          2
     1  C   -1.030185   0.000000
     2  H    0.343363  -0.000000
     3  H    0.343491  -0.000000
     4  H    0.343465  -0.000000
     5  C   -1.030568   0.000000
     6  H    0.343473  -0.000000
     7  H    0.343483  -0.000000
     8  H    0.343478  -0.000000
 Sum of Mulliken charges =  -0.00000   0.00000
 Mulliken charges and spin densities with hydrogens summed into heavy atoms:
               1          2
     1  C    0.000135   0.000000
     5  C   -0.000135  -0.000000
 Electronic spatial extent (au):  <R**2>=            188.7954
 Charge=             -0.0000 electrons
 Dipole moment (field-independent basis, Debye):
    X=              0.0000    Y=             -0.0051    Z=              0.0002  Tot=              0.0051
 Quadrupole moment (field-independent basis, Debye-Ang):
   XX=            -14.2509   YY=            -18.9572   ZZ=            -14.2497
   XY=              0.0085   XZ=              0.0006   YZ=              0.0035
 Traceless Quadrupole moment (field-independent basis, Debye-Ang):
   XX=              1.5684   YY=             -3.1380   ZZ=              1.5696
   XY=              0.0085   XZ=              0.0006   YZ=              0.0035
 Octapole moment (field-independent basis, Debye-Ang**2):
  XXX=             -0.0808  YYY=             56.8828  ZZZ=             -0.0323  XYY=             -0.0545
  XXY=             14.2511  XXZ=             -0.0110  XZZ=             -0.0285  YZZ=             14.2485
  YYZ=             -0.0199  XYZ=              0.0007
 Hexadecapole moment (field-independent basis, Debye-Ang**3):
 XXXX=            -29.3828 YYYY=           -246.9141 ZZZZ=            -29.3871 XXXY=              0.1673
 XXXZ=              0.0087 YYYX=              0.2444 YYYZ=              0.0929 ZZZX=             -0.0029
 ZZZY=              1.6863 XXYY=            -39.4719 XXZZ=             -9.7914 YYZZ=            -39.4619
 XXYZ=             -1.5961 YYXZ=             -0.0076 ZZXY=              0.0569
 N-N= 3.921336284812D+01 E-N=-2.622498456207D+02  KE= 7.904940629313D+01
                          Isotropic Fermi Contact Couplings
        Atom                 a.u.       MegaHertz       Gauss      10(-4) cm-1
     1  C(13)             -0.00000      -0.00006      -0.00002      -0.00002
     2  H(1)              -0.00000      -0.00002      -0.00001      -0.00001
     3  H(1)              -0.00000      -0.00002      -0.00001      -0.00001
     4  H(1)              -0.00000      -0.00002      -0.00001      -0.00001
     5  C(13)             -0.00000      -0.00007      -0.00002      -0.00002
     6  H(1)              -0.00000      -0.00001      -0.00000      -0.00000
     7  H(1)              -0.00000      -0.00001      -0.00000      -0.00000
     8  H(1)              -0.00000      -0.00001      -0.00000      -0.00000
 --------------------------------------------------------
       Center         ----  Spin Dipole Couplings  ----
                      3XX-RR        3YY-RR        3ZZ-RR
 --------------------------------------------------------
     1   Atom       -0.000000      0.000000     -0.000000
     2   Atom        0.000000      0.000000     -0.000000
     3   Atom       -0.000000      0.000000      0.000000
     4   Atom       -0.000000      0.000000      0.000000
     5   Atom        0.000000     -0.000000      0.000000
     6   Atom       -0.000000      0.000000      0.000000
     7   Atom       -0.000000      0.000000      0.000000
     8   Atom        0.000000      0.000000     -0.000000
 --------------------------------------------------------
                        XY            XZ            YZ
 --------------------------------------------------------
     1   Atom       -0.000000      0.000000      0.000000
     2   Atom       -0.000000      0.000000     -0.000000
     3   Atom       -0.000000      0.000000      0.000000
     4   Atom        0.000000     -0.000000      0.000000
     5   Atom        0.000000     -0.000000      0.000000
     6   Atom       -0.000000      0.000000      0.000000
     7   Atom        0.000000     -0.000000      0.000000
     8   Atom        0.000000      0.000000     -0.000000
 --------------------------------------------------------


 ---------------------------------------------------------------------------------
              Anisotropic Spin Dipole Couplings in Principal Axis System
 ---------------------------------------------------------------------------------

       Atom             a.u.   MegaHertz   Gauss  10(-4) cm-1        Axes

              Baa    -0.0000    -0.000    -0.000    -0.000  0.8967  0.0021 -0.4426
     1 C(13)  Bbb    -0.0000    -0.000    -0.000    -0.000  0.4426  0.0008  0.8967
              Bcc     0.0000     0.000     0.000     0.000 -0.0022  1.0000  0.0002
 
              Baa    -0.0000    -0.000    -0.000    -0.000 -0.0004  0.2732  0.9620
     2 H(1)   Bbb     0.0000     0.000     0.000     0.000  1.0000  0.0029 -0.0004
              Bcc     0.0000     0.000     0.000     0.000 -0.0029  0.9620 -0.2732
 
              Baa    -0.0000    -0.000    -0.000    -0.000  0.8333  0.2722 -0.4811
     3 H(1)   Bbb     0.0000     0.000     0.000     0.000  0.4997  0.0014  0.8662
              Bcc     0.0000     0.000     0.000     0.000 -0.2364  0.9622  0.1349
 
              Baa    -0.0000    -0.000    -0.000    -0.000  0.8337 -0.2699  0.4818
     4 H(1)   Bbb     0.0000     0.000     0.000     0.000 -0.5008 -0.0016  0.8656
              Bcc     0.0000     0.000     0.000     0.000  0.2328  0.9629  0.1365
 
              Baa    -0.0000    -0.000    -0.000    -0.000 -0.0019  1.0000 -0.0002
     5 C(13)  Bbb     0.0000     0.000     0.000     0.000  0.2724  0.0007  0.9622
              Bcc     0.0000     0.000     0.000     0.000  0.9622  0.0017 -0.2724
 
              Baa    -0.0000    -0.000    -0.000    -0.000  0.8560  0.1500 -0.4948
     6 H(1)   Bbb     0.0000     0.000     0.000     0.000 -0.1311  0.9887  0.0728
              Bcc     0.0000     0.000     0.000     0.000  0.5001  0.0026  0.8659
 
              Baa    -0.0000    -0.000    -0.000    -0.000  0.8568 -0.1466  0.4945
     7 H(1)   Bbb     0.0000     0.000     0.000     0.000  0.1271  0.9892  0.0729
              Bcc     0.0000     0.000     0.000     0.000 -0.4998  0.0004  0.8661
 
              Baa    -0.0000    -0.000    -0.000    -0.000 -0.0003  0.1488  0.9889
     8 H(1)   Bbb     0.0000     0.000     0.000     0.000 -0.0020  0.9889 -0.1488
              Bcc     0.0000     0.000     0.000     0.000  1.0000  0.0020 -0.0000
 

 ---------------------------------------------------------------------------------


 Test job not archived.
 1\1\GINC-NODE-6-10\POpt\UwB97XD\Aug-CC-pVTZ\C2H6\CAVALLOTTI\27-May-202
 3\1\\# uwb97xd/aug-cc-pvtz opt=(noeig,intern,maxcyc=50) # int=ultrafin
 e nosym iop(7/33=1) guess=(mix,always)\\geom 0\\0,1\C\H,1,R1\H,1,R2,2,
 A2\H,1,R3,2,A3,3,D3,0\C,1,RTS,2,AABS1,3,BABS1,0\H,5,R21,1,AABS2,2,BABS
 2,0\H,5,R22,6,A22,1,BABS3,0\H,5,R23,6,A23,7,D23,0\\BABS3=90.10037547\B
 ABS2=59.97484711\AABS2=90.06325859\BABS1=89.89224324\AABS1=89.95756195
 \D3=179.8076\R21=1.0782\R22=1.0782\R23=1.0782\A22=119.9721\A23=120.020
 7\D23=179.8076\A3=120.0207\A2=119.9721\R3=1.0782\R2=1.0782\R1=1.0782\R
 TS=2.\\Version=EM64L-G09RevD.01\HF=-79.7405467\S2=0.\S2-1=0.\S2A=0.\RM
 SD=7.961e-09\RMSF=2.979e-02\Dipole=0.0000021,-0.0019933,0.0000834\Quad
 rupole=1.1660331,-2.3329907,1.1669576,0.0063462,0.0004349,0.0026224\PG
 =C01 [X(C2H6)]\\@


 MANHOOD BEGINS BY TRYING TO SHAVE FACE,
 AND ENDS BY TRYING TO SAVE FACE.
 Job cpu time:       0 days  1 hours 33 minutes 18.6 seconds.
 File lengths (MBytes):  RWF=    106 Int=      0 D2E=      0 Chk=      7 Scr=      1
 Normal termination of Gaussian 09 at Sat May 27 09:24:52 2023.
