 Entering Gaussian System, Link 0=g09
 Input=geom.com
 Output=geom.log
 Initial command:
 /software/cinetica/g09d1/g09d01/d01/build-node-6-2-59348/src/main/l1.exe "/scratch/cc/139117/Gau-178453.inp" -scrdir="/scratch/cc/139117/"
 Entering Link 1 = /software/cinetica/g09d1/g09d01/d01/build-node-6-2-59348/src/main/l1.exe PID=    178454.
  
 Copyright (c) 1988,1990,1992,1993,1995,1998,2003,2009,2013,
            Gaussian, Inc.  All Rights Reserved.
  
 This is part of the Gaussian(R) 09 program.  It is based on
 the Gaussian(R) 03 system (copyright 2003, Gaussian, Inc.),
 the Gaussian(R) 98 system (copyright 1998, Gaussian, Inc.),
 the Gaussian(R) 94 system (copyright 1995, Gaussian, Inc.),
 the Gaussian 92(TM) system (copyright 1992, Gaussian, Inc.),
 the Gaussian 90(TM) system (copyright 1990, Gaussian, Inc.),
 the Gaussian 88(TM) system (copyright 1988, Gaussian, Inc.),
 the Gaussian 86(TM) system (copyright 1986, Carnegie Mellon
 University), and the Gaussian 82(TM) system (copyright 1983,
 Carnegie Mellon University). Gaussian is a federally registered
 trademark of Gaussian, Inc.
  
 This software contains proprietary and confidential information,
 including trade secrets, belonging to Gaussian, Inc.
  
 This software is provided under written license and may be
 used, copied, transmitted, or stored only in accord with that
 written license.
  
 The following legend is applicable only to US Government
 contracts under FAR:
  
                    RESTRICTED RIGHTS LEGEND
  
 Use, reproduction and disclosure by the US Government is
 subject to restrictions as set forth in subparagraphs (a)
 and (c) of the Commercial Computer Software - Restricted
 Rights clause in FAR 52.227-19.
  
 Gaussian, Inc.
 340 Quinnipiac St., Bldg. 40, Wallingford CT 06492
  
  
 ---------------------------------------------------------------
 Warning -- This program may not be used in any manner that
 competes with the business of Gaussian, Inc. or will provide
 assistance to any competitor of Gaussian, Inc.  The licensee
 of this program is prohibited from giving any competitor of
 Gaussian, Inc. access to this program.  By using this program,
 the user acknowledges that Gaussian, Inc. is engaged in the
 business of creating and licensing software in the field of
 computational chemistry and represents and warrants to the
 licensee that it is not a competitor of Gaussian, Inc. and that
 it will not use this program in any manner prohibited above.
 ---------------------------------------------------------------
  

 Cite this work as:
 Gaussian 09, Revision D.01,
 M. J. Frisch, G. W. Trucks, H. B. Schlegel, G. E. Scuseria, 
 M. A. Robb, J. R. Cheeseman, G. Scalmani, V. Barone, B. Mennucci, 
 G. A. Petersson, H. Nakatsuji, M. Caricato, X. Li, H. P. Hratchian, 
 A. F. Izmaylov, J. Bloino, G. Zheng, J. L. Sonnenberg, M. Hada, 
 M. Ehara, K. Toyota, R. Fukuda, J. Hasegawa, M. Ishida, T. Nakajima, 
 Y. Honda, O. Kitao, H. Nakai, T. Vreven, J. A. Montgomery, Jr., 
 J. E. Peralta, F. Ogliaro, M. Bearpark, J. J. Heyd, E. Brothers, 
 K. N. Kudin, V. N. Staroverov, T. Keith, R. Kobayashi, J. Normand, 
 K. Raghavachari, A. Rendell, J. C. Burant, S. S. Iyengar, J. Tomasi, 
 M. Cossi, N. Rega, J. M. Millam, M. Klene, J. E. Knox, J. B. Cross, 
 V. Bakken, C. Adamo, J. Jaramillo, R. Gomperts, R. E. Stratmann, 
 O. Yazyev, A. J. Austin, R. Cammi, C. Pomelli, J. W. Ochterski, 
 R. L. Martin, K. Morokuma, V. G. Zakrzewski, G. A. Voth, 
 P. Salvador, J. J. Dannenberg, S. Dapprich, A. D. Daniels, 
 O. Farkas, J. B. Foresman, J. V. Ortiz, J. Cioslowski, 
 and D. J. Fox, Gaussian, Inc., Wallingford CT, 2013.
 
 ******************************************
 Gaussian 09:  EM64L-G09RevD.01 24-Apr-2013
                27-May-2023 
 ******************************************
 %mem=400MW
 %chk=tmp
 %NProcShared= 32
 Will use up to   32 processors via shared memory.
 ----------------------------------------------------------------------
 # uwb97xd/aug-cc-pvtz opt=(noeig,intern,maxcyc=50) # int=ultrafine nos
 ym freq iop(7/33=1) guess=(mix,always)
 ----------------------------------------------------------------------
 1/6=50,10=7,11=1,14=-1,18=40,26=4,38=1/1,3;
 2/12=2,15=1,17=6,18=5,29=3,40=1/2;
 3/5=16,6=1,7=10,11=2,16=1,25=1,30=1,71=1,74=-58,75=-5,116=2/1,2,3;
 4/13=-1/1;
 5/5=2,38=5/2;
 6/7=2,8=2,9=2,10=2,28=1/1;
 7/29=1,30=1,33=1/1,2,3,16;
 1/6=50,10=7,11=1,14=-1,18=40,26=4/3(2);
 2/15=1,29=3/2;
 99//99;
 2/15=1,29=3/2;
 3/5=16,6=1,7=10,11=2,16=1,25=1,30=1,71=1,74=-58,75=-5,116=2/1,2,3;
 4/13=-1/1;
 5/5=2,38=5/2;
 7/30=1,33=1/1,2,3,16;
 1/6=50,11=1,14=-1,18=40,26=4/3(-5);
 2/15=1,29=3/2;
 6/7=2,8=2,9=2,10=2,19=2,28=1/1;
 99/9=1/99;
 ------
 geom 0
 ------
 Symbolic Z-matrix:
 Charge =  0 Multiplicity = 1
 C1
 H2                   C1   R1
 H3                   C1   R2       H2   A2
 H4                   C1   R3       H2   A3       H3   D3       0
 C21                  C1   BB       H2   ANG1     H3   DH1      0
 H22                  C21  R21      C1   ANG2     H2   DH2      0
 H23                  C21  R22      H22  A22      C1   DH3      0
 H24                  C21  R23      H22  A23      H23  D23      0
       Variables:
  R1                    1.0863                   
  R2                    1.0866                   
  R3                    1.0866                   
  A2                  112.7987                   
  A3                  112.8089                   
  D3                  230.8796                   
  R21                   1.0863                   
  R22                   1.0866                   
  R23                   1.0866                   
  A22                 112.7946                   
  A23                 112.8087                   
  D23                 129.1214                   
  ANG2                105.9252                   
  DH3                 115.414                    
  DH2                  60.0164                   
  DH1                 115.442                    
  ANG1                105.9275                   
       Constants:
  BB                    2.                       
 

 GradGradGradGradGradGradGradGradGradGradGradGradGradGradGradGradGradGrad
 Berny optimization.
 Initialization pass.
                       ----------------------------
                       !    Initial Parameters    !
                       ! (Angstroms and Degrees)  !
 ----------------------                            ----------------------
 !      Name          Value   Derivative information (Atomic Units)     !
 ------------------------------------------------------------------------
 !       R1          1.0863   estimate D2E/DX2                          !
 !       R2          1.0866   estimate D2E/DX2                          !
 !       R3          1.0866   estimate D2E/DX2                          !
 !       A2        112.7987   estimate D2E/DX2                          !
 !       A3        112.8089   estimate D2E/DX2                          !
 !       D3        230.8796   estimate D2E/DX2                          !
 !       R21         1.0863   estimate D2E/DX2                          !
 !       R22         1.0866   estimate D2E/DX2                          !
 !       R23         1.0866   estimate D2E/DX2                          !
 !       A22       112.7946   estimate D2E/DX2                          !
 !       A23       112.8087   estimate D2E/DX2                          !
 !       D23       129.1214   estimate D2E/DX2                          !
 !      ANG2       105.9252   estimate D2E/DX2                          !
 !       DH3       115.414    estimate D2E/DX2                          !
 !       DH2        60.0164   estimate D2E/DX2                          !
 !       DH1       115.442    estimate D2E/DX2                          !
 !      ANG1       105.9275   estimate D2E/DX2                          !
 !       BB          2.0      Frozen                                    !
 ------------------------------------------------------------------------
 Trust Radius=3.00D-01 FncErr=1.00D-07 GrdErr=1.00D-06
 Number of steps in this run=     50 maximum allowed number of steps=    100.
 GradGradGradGradGradGradGradGradGradGradGradGradGradGradGradGradGradGrad

 ---------------------------------------------------------------------------------------------------
                            Z-MATRIX (ANGSTROMS AND DEGREES)
   CD    Cent   Atom    N1       Length/X        N2       Alpha/Y        N3        Beta/Z          J
 ---------------------------------------------------------------------------------------------------
      1      1  C 
      2      2  H        1   1.086300(     1)
      3      3  H        1   1.086600(     2)      2  112.799(     8)
      4      4  H        1   1.086600(     3)      2  112.809(     9)      3  230.880(    14)      0
      5      5  C        1   2.000000(     4)      2  105.927(    10)      3  115.442(    15)      0
      6      6  H        5   1.086300(     5)      1  105.925(    11)      2   60.016(    16)      0
      7      7  H        5   1.086600(     6)      6  112.795(    12)      1  115.414(    17)      0
      8      8  H        5   1.086600(     7)      6  112.809(    13)      7  129.121(    18)      0
 ---------------------------------------------------------------------------------------------------
                         Z-Matrix orientation:                         
 ---------------------------------------------------------------------
 Center     Atomic      Atomic             Coordinates (Angstroms)
 Number     Number       Type             X           Y           Z
 ---------------------------------------------------------------------
      1          6           0        0.000000    0.000000    0.000000
      2          1           0        0.000000    0.000000    1.086300
      3          1           0        1.001706    0.000000   -0.421052
      4          1           0       -0.631981    0.777087   -0.421230
      5          6           0       -0.826210   -1.736707   -0.548842
      6          1           0       -1.827944   -1.736194   -0.128632
      7          1           0       -0.193637   -2.513631   -0.128199
      8          1           0       -0.825233   -1.737591   -1.635441
 ---------------------------------------------------------------------
                    Distance matrix (angstroms):
                    1          2          3          4          5
     1  C    0.000000
     2  H    1.086300   0.000000
     3  H    1.086600   1.809841   0.000000
     4  H    1.086600   1.809948   1.809088   0.000000
     5  C    2.000000   2.524373   2.524630   2.524514   0.000000
     6  H    2.524340   2.798537   3.332686   2.798664   1.086300
     7  H    2.524335   2.798364   2.798740   3.332692   1.086600
     8  H    2.524856   3.332883   2.798512   2.799154   1.086600
                    6          7          8
     6  H    0.000000
     7  H    1.809798   0.000000
     8  H    1.809946   1.809124   0.000000
 Symmetry turned off by external request.
 Stoichiometry    C2H6
 Framework group  C1[X(C2H6)]
 Deg. of freedom    18
 Full point group                 C1      NOp   1
 Rotational constants (GHZ):     76.5641133     13.4804125     13.4796926
 Standard basis: Aug-CC-pVTZ (5D, 7F)
   230 basis functions,   306 primitive gaussians,   260 cartesian basis functions
     9 alpha electrons        9 beta electrons
       nuclear repulsion energy        37.9704569276 Hartrees.
 NAtoms=    8 NActive=    8 NUniq=    8 SFac= 1.00D+00 NAtFMM=   60 NAOKFM=F Big=F
 Integral buffers will be    131072 words long.
 Raffenetti 2 integral format.
 Two-electron integral symmetry is turned off.
 Nuclear repulsion after empirical dispersion term =       37.9684516583 Hartrees.
 One-electron integrals computed using PRISM.
 NBasis=   230 RedAO= T EigKep=  4.64D-05  NBF=   230
 NBsUse=   230 1.00D-06 EigRej= -1.00D+00 NBFU=   230
 ExpMin= 2.53D-02 ExpMax= 8.24D+03 ExpMxC= 2.81D+02 IAcc=3 IRadAn=         5 AccDes= 0.00D+00
 Harris functional with IExCor= 4639 and IRadAn=       5 diagonalized for initial guess.
 HarFok:  IExCor= 4639 AccDes= 0.00D+00 IRadAn=         5 IDoV= 1 UseB2=F ITyADJ=14
 ICtDFT=  3500011 ScaDFX=  1.000000  1.000000  1.000000  1.000000
 FoFCou: FMM=F IPFlag=           0 FMFlag=      100000 FMFlg1=           0
         NFxFlg=           0 DoJE=T BraDBF=F KetDBF=T FulRan=T
         wScrn=  0.000000 ICntrl=     500 IOpCl=  0 I1Cent=   200000004 NGrid=           0
         NMat0=    1 NMatS0=      1 NMatT0=    0 NMatD0=    1 NMtDS0=    0 NMtDT0=    0
 Symmetry not used in FoFCou.
 Mixing orbitals, IMix= 1 IMixAn=  0 NRI=1 NE=    9 Coef=  7.07106781D-01  7.07106781D-01
 Mixing orbitals, IMix= 1 IMixAn=  0 NRI=1 NE=    9 Coef= -7.07106781D-01  7.07106781D-01
 Initial guess <Sx>= 0.0000 <Sy>= 0.0000 <Sz>= 0.0000 <S**2>= 1.0000 S= 0.6180
 Requested convergence on RMS density matrix=1.00D-08 within 128 cycles.
 Requested convergence on MAX density matrix=1.00D-06.
 Requested convergence on             energy=1.00D-06.
 No special actions if energy rises.
 SCF Done:  E(UwB97XD) =  -79.7799061388     A.U. after   12 cycles
            NFock= 12  Conv=0.33D-08     -V/T= 2.0113
 <Sx>= 0.0000 <Sy>= 0.0000 <Sz>= 0.0000 <S**2>= 0.0000 S= 0.0000
 <L.S>=  0.00000000000    
 Annihilation of the first spin contaminant:
 S**2 before annihilation    -0.0000,   after     0.0000

 **********************************************************************

            Population analysis using the SCF density.

 **********************************************************************

 Alpha  occ. eigenvalues --  -10.29438 -10.29435  -0.79708  -0.73276  -0.50273
 Alpha  occ. eigenvalues --   -0.50260  -0.46146  -0.46132  -0.36461
 Alpha virt. eigenvalues --    0.03381   0.04308   0.04670   0.04673   0.06960
 Alpha virt. eigenvalues --    0.06962   0.10121   0.10431   0.12412   0.12416
 Alpha virt. eigenvalues --    0.13291   0.14405   0.14407   0.15669   0.17603
 Alpha virt. eigenvalues --    0.19920   0.19923   0.22076   0.22080   0.26118
 Alpha virt. eigenvalues --    0.26121   0.28458   0.30717   0.31366   0.31368
 Alpha virt. eigenvalues --    0.32863   0.34569   0.34788   0.34789   0.37598
 Alpha virt. eigenvalues --    0.37599   0.37758   0.38559   0.39527   0.39538
 Alpha virt. eigenvalues --    0.39917   0.39923   0.41034   0.41038   0.43991
 Alpha virt. eigenvalues --    0.45007   0.45014   0.47520   0.47523   0.48083
 Alpha virt. eigenvalues --    0.48083   0.49162   0.51585   0.51586   0.66609
 Alpha virt. eigenvalues --    0.69162   0.69256   0.72453   0.72459   0.72676
 Alpha virt. eigenvalues --    0.72686   0.77128   0.77133   0.79325   0.79328
 Alpha virt. eigenvalues --    0.80410   0.82233   0.85659   0.88944   0.89842
 Alpha virt. eigenvalues --    0.89853   0.89892   0.91397   0.91403   0.92850
 Alpha virt. eigenvalues --    0.92861   0.93983   0.96020   0.96410   0.96411
 Alpha virt. eigenvalues --    1.02151   1.02153   1.02497   1.07897   1.07899
 Alpha virt. eigenvalues --    1.08563   1.08572   1.10100   1.15275   1.15279
 Alpha virt. eigenvalues --    1.17377   1.17383   1.18919   1.18929   1.18931
 Alpha virt. eigenvalues --    1.19755   1.27875   1.27881   1.29085   1.31267
 Alpha virt. eigenvalues --    1.31269   1.39212   1.43573   1.48825   1.48829
 Alpha virt. eigenvalues --    1.50906   1.51547   1.51556   1.52834   1.53906
 Alpha virt. eigenvalues --    1.53914   1.57190   1.59044   1.61199   1.62187
 Alpha virt. eigenvalues --    1.62589   1.62597   1.66854   1.66871   1.70083
 Alpha virt. eigenvalues --    1.74079   1.74092   1.80372   1.81369   1.81381
 Alpha virt. eigenvalues --    1.84293   1.84310   1.98284   2.05749   2.05758
 Alpha virt. eigenvalues --    2.06290   2.06323   2.12166   2.12171   2.12182
 Alpha virt. eigenvalues --    2.12186   2.16757   2.19041   2.19566   2.51208
 Alpha virt. eigenvalues --    2.83920   2.84190   3.03191   3.12060   3.12066
 Alpha virt. eigenvalues --    3.16460   3.16461   3.16567   3.17321   3.17333
 Alpha virt. eigenvalues --    3.32175   3.32181   3.34873   3.36067   3.36085
 Alpha virt. eigenvalues --    3.38050   3.42783   3.45115   3.45555   3.45559
 Alpha virt. eigenvalues --    3.52114   3.52120   3.58256   3.58284   3.69447
 Alpha virt. eigenvalues --    3.69451   3.73083   3.73105   3.78703   3.79164
 Alpha virt. eigenvalues --    3.82021   3.82047   3.89243   3.92563   3.92566
 Alpha virt. eigenvalues --    3.92596   3.92607   4.05110   4.11179   4.17452
 Alpha virt. eigenvalues --    4.17482   4.28043   4.29763   4.29855   4.29887
 Alpha virt. eigenvalues --    4.30769   4.30780   4.42388   4.53333   4.53345
 Alpha virt. eigenvalues --    4.54386   4.54395   4.61075   4.64215   4.69458
 Alpha virt. eigenvalues --    4.70362   4.70384   4.80886   4.80897   4.94755
 Alpha virt. eigenvalues --    4.96641   4.96665   5.04010   5.08976   5.09044
 Alpha virt. eigenvalues --    5.17591   5.20761   5.20806   5.27890   5.27926
 Alpha virt. eigenvalues --    5.34354   5.40815   5.54279   5.58413   5.70906
 Alpha virt. eigenvalues --    5.70963   5.74910   5.74950   5.79391   5.95805
 Alpha virt. eigenvalues --    6.36543   6.36586   6.39664   6.39715  16.16905
 Alpha virt. eigenvalues --   16.24476
  Beta  occ. eigenvalues --  -10.29438 -10.29435  -0.79708  -0.73276  -0.50273
  Beta  occ. eigenvalues --   -0.50260  -0.46146  -0.46132  -0.36461
  Beta virt. eigenvalues --    0.03381   0.04308   0.04670   0.04673   0.06960
  Beta virt. eigenvalues --    0.06962   0.10121   0.10431   0.12412   0.12416
  Beta virt. eigenvalues --    0.13291   0.14405   0.14407   0.15669   0.17603
  Beta virt. eigenvalues --    0.19920   0.19923   0.22076   0.22080   0.26118
  Beta virt. eigenvalues --    0.26121   0.28458   0.30717   0.31366   0.31368
  Beta virt. eigenvalues --    0.32863   0.34569   0.34788   0.34789   0.37598
  Beta virt. eigenvalues --    0.37599   0.37758   0.38559   0.39527   0.39538
  Beta virt. eigenvalues --    0.39917   0.39923   0.41034   0.41038   0.43991
  Beta virt. eigenvalues --    0.45007   0.45014   0.47520   0.47523   0.48083
  Beta virt. eigenvalues --    0.48083   0.49162   0.51585   0.51586   0.66609
  Beta virt. eigenvalues --    0.69162   0.69256   0.72453   0.72459   0.72676
  Beta virt. eigenvalues --    0.72686   0.77128   0.77133   0.79325   0.79328
  Beta virt. eigenvalues --    0.80410   0.82233   0.85659   0.88944   0.89842
  Beta virt. eigenvalues --    0.89853   0.89892   0.91397   0.91403   0.92850
  Beta virt. eigenvalues --    0.92861   0.93983   0.96020   0.96410   0.96411
  Beta virt. eigenvalues --    1.02151   1.02153   1.02497   1.07897   1.07899
  Beta virt. eigenvalues --    1.08563   1.08572   1.10100   1.15275   1.15279
  Beta virt. eigenvalues --    1.17377   1.17383   1.18919   1.18929   1.18931
  Beta virt. eigenvalues --    1.19755   1.27875   1.27881   1.29085   1.31267
  Beta virt. eigenvalues --    1.31269   1.39212   1.43573   1.48825   1.48829
  Beta virt. eigenvalues --    1.50906   1.51547   1.51556   1.52834   1.53906
  Beta virt. eigenvalues --    1.53914   1.57190   1.59044   1.61199   1.62187
  Beta virt. eigenvalues --    1.62589   1.62597   1.66854   1.66871   1.70083
  Beta virt. eigenvalues --    1.74079   1.74092   1.80372   1.81369   1.81381
  Beta virt. eigenvalues --    1.84293   1.84310   1.98284   2.05749   2.05758
  Beta virt. eigenvalues --    2.06290   2.06323   2.12166   2.12171   2.12182
  Beta virt. eigenvalues --    2.12186   2.16757   2.19041   2.19566   2.51208
  Beta virt. eigenvalues --    2.83920   2.84190   3.03191   3.12060   3.12066
  Beta virt. eigenvalues --    3.16460   3.16461   3.16567   3.17321   3.17333
  Beta virt. eigenvalues --    3.32175   3.32181   3.34873   3.36067   3.36085
  Beta virt. eigenvalues --    3.38050   3.42783   3.45115   3.45555   3.45559
  Beta virt. eigenvalues --    3.52114   3.52120   3.58256   3.58284   3.69447
  Beta virt. eigenvalues --    3.69451   3.73083   3.73105   3.78703   3.79164
  Beta virt. eigenvalues --    3.82021   3.82047   3.89243   3.92563   3.92566
  Beta virt. eigenvalues --    3.92596   3.92607   4.05110   4.11179   4.17452
  Beta virt. eigenvalues --    4.17482   4.28043   4.29763   4.29855   4.29887
  Beta virt. eigenvalues --    4.30769   4.30780   4.42388   4.53333   4.53345
  Beta virt. eigenvalues --    4.54386   4.54395   4.61075   4.64215   4.69458
  Beta virt. eigenvalues --    4.70362   4.70384   4.80886   4.80897   4.94755
  Beta virt. eigenvalues --    4.96641   4.96665   5.04010   5.08976   5.09044
  Beta virt. eigenvalues --    5.17591   5.20761   5.20806   5.27890   5.27926
  Beta virt. eigenvalues --    5.34354   5.40815   5.54279   5.58413   5.70906
  Beta virt. eigenvalues --    5.70963   5.74910   5.74950   5.79391   5.95805
  Beta virt. eigenvalues --    6.36543   6.36586   6.39664   6.39715  16.16905
  Beta virt. eigenvalues --   16.24476
          Condensed to atoms (all electrons):
               1          2          3          4          5          6
     1  C    5.458694   0.377541   0.377429   0.377445   0.274222  -0.000299
     2  H    0.377541   0.312090   0.010986   0.010986  -0.000277   0.000303
     3  H    0.377429   0.010986   0.312150   0.011016  -0.000338  -0.000016
     4  H    0.377445   0.010986   0.011016   0.312166  -0.000333   0.000304
     5  C    0.274222  -0.000277  -0.000338  -0.000333   5.458693   0.377524
     6  H   -0.000299   0.000303  -0.000016   0.000304   0.377524   0.312083
     7  H   -0.000323   0.000304   0.000303  -0.000016   0.377427   0.010990
     8  H   -0.000328  -0.000016   0.000300   0.000301   0.377465   0.010986
               7          8
     1  C   -0.000323  -0.000328
     2  H    0.000304  -0.000016
     3  H    0.000303   0.000300
     4  H   -0.000016   0.000301
     5  C    0.377427   0.377465
     6  H    0.010990   0.010986
     7  H    0.312160   0.011012
     8  H    0.011012   0.312167
          Atomic-Atomic Spin Densities.
               1          2          3          4          5          6
     1  C    0.000000  -0.000000  -0.000000  -0.000000  -0.000000   0.000000
     2  H   -0.000000  -0.000000   0.000000   0.000000   0.000000  -0.000000
     3  H   -0.000000   0.000000  -0.000000   0.000000   0.000000  -0.000000
     4  H   -0.000000   0.000000   0.000000  -0.000000   0.000000  -0.000000
     5  C   -0.000000   0.000000   0.000000   0.000000   0.000000  -0.000000
     6  H    0.000000  -0.000000  -0.000000  -0.000000  -0.000000  -0.000000
     7  H    0.000000  -0.000000  -0.000000  -0.000000  -0.000000   0.000000
     8  H    0.000000  -0.000000  -0.000000  -0.000000  -0.000000   0.000000
               7          8
     1  C    0.000000   0.000000
     2  H   -0.000000  -0.000000
     3  H   -0.000000  -0.000000
     4  H   -0.000000  -0.000000
     5  C   -0.000000  -0.000000
     6  H    0.000000   0.000000
     7  H   -0.000000   0.000000
     8  H    0.000000  -0.000000
 Mulliken charges and spin densities:
               1          2
     1  C   -0.864382   0.000000
     2  H    0.288083  -0.000000
     3  H    0.288170  -0.000000
     4  H    0.288131  -0.000000
     5  C   -0.864383   0.000000
     6  H    0.288125  -0.000000
     7  H    0.288144  -0.000000
     8  H    0.288112  -0.000000
 Sum of Mulliken charges =  -0.00000  -0.00000
 Mulliken charges and spin densities with hydrogens summed into heavy atoms:
               1          2
     1  C    0.000002  -0.000000
     5  C   -0.000002   0.000000
 Electronic spatial extent (au):  <R**2>=            200.0061
 Charge=             -0.0000 electrons
 Dipole moment (field-independent basis, Debye):
    X=              0.0002    Y=             -0.0001    Z=             -0.0001  Tot=              0.0003
 Quadrupole moment (field-independent basis, Debye-Ang):
   XX=            -14.8526   YY=            -15.2564   ZZ=            -14.7842
   XY=             -0.2480   XZ=             -0.0801   YZ=             -0.1645
 Traceless Quadrupole moment (field-independent basis, Debye-Ang):
   XX=              0.1118   YY=             -0.2920   ZZ=              0.1802
   XY=             -0.2480   XZ=             -0.0801   YZ=             -0.1645
 Octapole moment (field-independent basis, Debye-Ang**2):
  XXX=             18.3990  YYY=             39.7455  ZZZ=             12.1780  XYY=              6.7341
  XXY=             13.1013  XXZ=              4.1439  XZZ=              6.1526  YZZ=             12.9284
  YYZ=              4.4695  XYZ=              0.2058
 Hexadecapole moment (field-independent basis, Debye-Ang**3):
 XXXX=            -60.1939 YYYY=           -175.7800 ZZZZ=            -41.5327 XXXY=            -32.7148
 XXXZ=            -12.4018 YYYX=            -38.3216 YYYZ=            -25.4493 ZZZX=             -9.8166
 ZZZY=            -20.6265 XXYY=            -40.1050 XXZZ=            -18.6512 YYZZ=            -36.9103
 XXYZ=             -8.5744 YYXZ=             -3.7870 ZZXY=            -11.2336
 N-N= 3.796845165832D+01 E-N=-2.597226604374D+02  KE= 7.889189417091D+01
                          Isotropic Fermi Contact Couplings
        Atom                 a.u.       MegaHertz       Gauss      10(-4) cm-1
     1  C(13)             -0.00000      -0.00007      -0.00003      -0.00002
     2  H(1)              -0.00000      -0.00001      -0.00000      -0.00000
     3  H(1)              -0.00000      -0.00001      -0.00000      -0.00000
     4  H(1)              -0.00000      -0.00001      -0.00000      -0.00000
     5  C(13)             -0.00000      -0.00007      -0.00002      -0.00002
     6  H(1)              -0.00000      -0.00002      -0.00001      -0.00001
     7  H(1)              -0.00000      -0.00002      -0.00001      -0.00001
     8  H(1)              -0.00000      -0.00001      -0.00001      -0.00000
 --------------------------------------------------------
       Center         ----  Spin Dipole Couplings  ----
                      3XX-RR        3YY-RR        3ZZ-RR
 --------------------------------------------------------
     1   Atom       -0.000000      0.000000     -0.000000
     2   Atom        0.000000      0.000000     -0.000000
     3   Atom       -0.000000      0.000000      0.000000
     4   Atom        0.000000     -0.000000      0.000000
     5   Atom       -0.000000      0.000000     -0.000000
     6   Atom       -0.000000      0.000000      0.000000
     7   Atom        0.000000     -0.000000      0.000000
     8   Atom        0.000000      0.000000     -0.000000
 --------------------------------------------------------
                        XY            XZ            YZ
 --------------------------------------------------------
     1   Atom        0.000000      0.000000      0.000000
     2   Atom        0.000000     -0.000000     -0.000000
     3   Atom       -0.000000      0.000000      0.000000
     4   Atom        0.000000     -0.000000      0.000000
     5   Atom        0.000000      0.000000      0.000000
     6   Atom       -0.000000      0.000000      0.000000
     7   Atom        0.000000      0.000000      0.000000
     8   Atom        0.000000     -0.000000     -0.000000
 --------------------------------------------------------


 ---------------------------------------------------------------------------------
              Anisotropic Spin Dipole Couplings in Principal Axis System
 ---------------------------------------------------------------------------------

       Atom             a.u.   MegaHertz   Gauss  10(-4) cm-1        Axes

              Baa    -0.0000    -0.000    -0.000    -0.000  0.9095 -0.4069 -0.0853
     1 C(13)  Bbb    -0.0000    -0.000    -0.000    -0.000 -0.0402 -0.2904  0.9560
              Bcc     0.0000     0.000     0.000     0.000  0.4138  0.8661  0.2805
 
              Baa    -0.0000    -0.000    -0.000    -0.000  0.1469  0.3082  0.9399
     2 H(1)   Bbb     0.0000     0.000     0.000     0.000  0.9032 -0.4292 -0.0004
              Bcc     0.0000     0.000     0.000     0.000  0.4033  0.8490 -0.3414
 
              Baa    -0.0000    -0.000    -0.000    -0.000  0.9233  0.3067 -0.2310
     3 H(1)   Bbb     0.0000     0.000     0.000     0.000  0.3511 -0.4310  0.8312
              Bcc     0.0000     0.000     0.000     0.000 -0.1554  0.8486  0.5057
 
              Baa    -0.0000    -0.000    -0.000    -0.000 -0.3444  0.9099 -0.2313
     4 H(1)   Bbb     0.0000     0.000     0.000     0.000 -0.5566  0.0005  0.8308
              Bcc     0.0000     0.000     0.000     0.000  0.7561  0.4148  0.5062
 
              Baa    -0.0000    -0.000    -0.000    -0.000  0.3063 -0.4150  0.8567
     5 C(13)  Bbb    -0.0000    -0.000    -0.000    -0.000  0.8550 -0.2758 -0.4393
              Bcc     0.0000     0.000     0.000     0.000  0.4185  0.8670  0.2704
 
              Baa    -0.0000    -0.000    -0.000    -0.000  0.9193  0.3287 -0.2165
     6 H(1)   Bbb     0.0000     0.000     0.000     0.000  0.3493 -0.4280  0.8336
              Bcc     0.0000     0.000     0.000     0.000 -0.1813  0.8419  0.5082
 
              Baa    -0.0000    -0.000    -0.000    -0.000 -0.3279  0.9193 -0.2177
     7 H(1)   Bbb     0.0000     0.000     0.000     0.000 -0.5504  0.0014  0.8349
              Bcc     0.0000     0.000     0.000     0.000  0.7678  0.3936  0.5055
 
              Baa    -0.0000    -0.000    -0.000    -0.000  0.1536  0.3266  0.9326
     8 H(1)   Bbb     0.0000     0.000     0.000     0.000  0.9020 -0.4318  0.0027
              Bcc     0.0000     0.000     0.000     0.000  0.4036  0.8407 -0.3609
 

 ---------------------------------------------------------------------------------

 DipInt: DoE/N= T T RetVal/Mat= T F Init=T NMatP=  1 IDeriv=0 Min/MaxMlt=  1  1
 Entering OneElI...
 Multipole integrals L=1 to 1 MinM= 0 MaxM= 0.
 Requested accuracy = 0.1000D-12
 PrsmSu:  NPrtUS=   1 ThrOK=F IAlg=1 NPAlg=1 LenDen=           0.
 Prism:   IPart=     0 DynPar=F LinDyn=F Incr=          34.
 PRISM was handed   419147199 working-precision words and  3403 shell-pairs
 IPart=  0 NShTot=        3403 NBatch=          44 AvBLen=        77.3
 PrSmSu:  NxtVal=             35.
 Entering OneElI...
 Calculate overlap and kinetic energy integrals
    NBasis = 260  MinDer = 1  MaxDer = 1
 Requested accuracy = 0.1000D-12
 PrsmSu:  NPrtUS=  32 ThrOK=T IAlg=1 NPAlg=1 LenDen=           0.
 Prism:   IPart=     0 DynPar=F LinDyn=F Incr=           1.
 PRISM was handed    13041104 working-precision words and  3403 shell-pairs
 PRISM was handed    13041104 working-precision words and  3403 shell-pairs
 PRISM was handed    13041104 working-precision words and  3403 shell-pairs
 PRISM was handed    13041104 working-precision words and  3403 shell-pairs
 PRISM was handed    13041104 working-precision words and  3403 shell-pairs
 PRISM was handed    13041104 working-precision words and  3403 shell-pairs
 PRISM was handed    13041104 working-precision words and  3403 shell-pairs
 PRISM was handed    13041104 working-precision words and  3403 shell-pairs
 PRISM was handed    13041104 working-precision words and  3403 shell-pairs
 PRISM was handed    13041104 working-precision words and  3403 shell-pairs
 PRISM was handed    13041104 working-precision words and  3403 shell-pairs
 PRISM was handed    13041104 working-precision words and  3403 shell-pairs
 PRISM was handed    13041104 working-precision words and  3403 shell-pairs
 PRISM was handed    13041104 working-precision words and  3403 shell-pairs
 PRISM was handed    13041104 working-precision words and  3403 shell-pairs
 PRISM was handed    13041104 working-precision words and  3403 shell-pairs
 PRISM was handed    13041104 working-precision words and  3403 shell-pairs
 PRISM was handed    13041104 working-precision words and  3403 shell-pairs
 PRISM was handed    13041104 working-precision words and  3403 shell-pairs
 PRISM was handed    13041104 working-precision words and  3403 shell-pairs
 PRISM was handed    13041104 working-precision words and  3403 shell-pairs
 PRISM was handed    13041104 working-precision words and  3403 shell-pairs
 PRISM was handed    13041104 working-precision words and  3403 shell-pairs
 PRISM was handed    13041104 working-precision words and  3403 shell-pairs
 PRISM was handed    13041104 working-precision words and  3403 shell-pairs
 PRISM was handed    13041104 working-precision words and  3403 shell-pairs
 PRISM was handed    13041104 working-precision words and  3403 shell-pairs
 PRISM was handed    13041104 working-precision words and  3403 shell-pairs
 PRISM was handed    13041104 working-precision words and  3403 shell-pairs
 PRISM was handed    13041104 working-precision words and  3403 shell-pairs
 PRISM was handed    13041104 working-precision words and  3403 shell-pairs
 PRISM was handed    13041104 working-precision words and  3403 shell-pairs
 IPart=  0 NShTot=         135 NBatch=          43 AvBLen=         3.1
 IPart= 13 NShTot=         105 NBatch=          21 AvBLen=         5.0
 IPart= 12 NShTot=         105 NBatch=          21 AvBLen=         5.0
 IPart= 27 NShTot=          96 NBatch=          20 AvBLen=         4.8
 IPart=  4 NShTot=         120 NBatch=          31 AvBLen=         3.9
 IPart=  5 NShTot=         120 NBatch=          31 AvBLen=         3.9
 IPart=  6 NShTot=         117 NBatch=          28 AvBLen=         4.2
 IPart= 31 NShTot=          96 NBatch=          20 AvBLen=         4.8
 IPart= 17 NShTot=          98 NBatch=          21 AvBLen=         4.7
 IPart= 10 NShTot=         111 NBatch=          23 AvBLen=         4.8
 IPart=  2 NShTot=         123 NBatch=          31 AvBLen=         4.0
 IPart= 19 NShTot=          98 NBatch=          21 AvBLen=         4.7
 IPart= 25 NShTot=          96 NBatch=          20 AvBLen=         4.8
 IPart= 23 NShTot=          97 NBatch=          21 AvBLen=         4.6
 IPart= 16 NShTot=          98 NBatch=          21 AvBLen=         4.7
 IPart=  8 NShTot=         113 NBatch=          25 AvBLen=         4.5
 IPart= 21 NShTot=          98 NBatch=          21 AvBLen=         4.7
 IPart= 29 NShTot=          96 NBatch=          20 AvBLen=         4.8
 IPart= 18 NShTot=          98 NBatch=          21 AvBLen=         4.7
 IPart= 14 NShTot=         105 NBatch=          21 AvBLen=         5.0
 IPart= 28 NShTot=          96 NBatch=          20 AvBLen=         4.8
 IPart=  3 NShTot=         123 NBatch=          31 AvBLen=         4.0
 IPart= 26 NShTot=          96 NBatch=          20 AvBLen=         4.8
 IPart= 15 NShTot=         105 NBatch=          21 AvBLen=         5.0
 IPart= 20 NShTot=          98 NBatch=          21 AvBLen=         4.7
 IPart= 30 NShTot=          96 NBatch=          20 AvBLen=         4.8
 IPart=  9 NShTot=         112 NBatch=          24 AvBLen=         4.7
 IPart= 24 NShTot=          96 NBatch=          20 AvBLen=         4.8
 IPart= 11 NShTot=         110 NBatch=          23 AvBLen=         4.8
 IPart=  1 NShTot=         132 NBatch=          40 AvBLen=         3.3
 IPart= 22 NShTot=          97 NBatch=          21 AvBLen=         4.6
 IPart=  7 NShTot=         117 NBatch=          28 AvBLen=         4.2
 PrSmSu:  NxtVal=             33.
 Entering OneElI...
 Calculate potential energy integrals
    NBasis = 260  MinDer = 1  MaxDer = 1
 Requested accuracy = 0.1000D-12
 PrsmSu:  NPrtUS=  32 ThrOK=T IAlg=1 NPAlg=1 LenDen=           0.
 Prism:   IPart=     0 DynPar=F LinDyn=F Incr=           8.
 PRISM was handed    13045401 working-precision words and  3400 shell-pairs
 PRISM was handed    13045401 working-precision words and  3400 shell-pairs
 PRISM was handed    13045401 working-precision words and  3400 shell-pairs
 PRISM was handed    13045401 working-precision words and  3400 shell-pairs
 PRISM was handed    13045401 working-precision words and  3400 shell-pairs
 PRISM was handed    13045401 working-precision words and  3400 shell-pairs
 PRISM was handed    13045401 working-precision words and  3400 shell-pairs
 PRISM was handed    13045401 working-precision words and  3400 shell-pairs
 PRISM was handed    13045401 working-precision words and  3400 shell-pairs
 PRISM was handed    13045401 working-precision words and  3400 shell-pairs
 PRISM was handed    13045401 working-precision words and  3400 shell-pairs
 PRISM was handed    13045401 working-precision words and  3400 shell-pairs
 PRISM was handed    13045401 working-precision words and  3400 shell-pairs
 PRISM was handed    13045401 working-precision words and  3400 shell-pairs
 PRISM was handed    13045401 working-precision words and  3400 shell-pairs
 PRISM was handed    13045401 working-precision words and  3400 shell-pairs
 PRISM was handed    13045401 working-precision words and  3400 shell-pairs
 PRISM was handed    13045401 working-precision words and  3400 shell-pairs
 PRISM was handed    13045401 working-precision words and  3400 shell-pairs
 PRISM was handed    13045401 working-precision words and  3400 shell-pairs
 PRISM was handed    13045401 working-precision words and  3400 shell-pairs
 PRISM was handed    13045401 working-precision words and  3400 shell-pairs
 PRISM was handed    13045401 working-precision words and  3400 shell-pairs
 PRISM was handed    13045401 working-precision words and  3400 shell-pairs
 PRISM was handed    13045401 working-precision words and  3400 shell-pairs
 PRISM was handed    13045401 working-precision words and  3400 shell-pairs
 PRISM was handed    13045401 working-precision words and  3400 shell-pairs
 PRISM was handed    13045401 working-precision words and  3400 shell-pairs
 PRISM was handed    13045401 working-precision words and  3400 shell-pairs
 PRISM was handed    13045401 working-precision words and  3400 shell-pairs
 PRISM was handed    13045401 working-precision words and  3400 shell-pairs
 PRISM was handed    13045401 working-precision words and  3400 shell-pairs
 IPart= 22 NShTot=         768 NBatch=          96 AvBLen=         8.0
 IPart= 30 NShTot=         752 NBatch=          94 AvBLen=         8.0
 IPart= 26 NShTot=         752 NBatch=          94 AvBLen=         8.0
 IPart= 24 NShTot=         760 NBatch=          95 AvBLen=         8.0
 IPart= 27 NShTot=         752 NBatch=          94 AvBLen=         8.0
 IPart= 15 NShTot=         840 NBatch=         105 AvBLen=         8.0
 IPart= 11 NShTot=         848 NBatch=         106 AvBLen=         8.0
 IPart=  7 NShTot=         936 NBatch=         117 AvBLen=         8.0
 IPart= 28 NShTot=         752 NBatch=          94 AvBLen=         8.0
 IPart=  5 NShTot=         976 NBatch=         122 AvBLen=         8.0
 IPart=  9 NShTot=         888 NBatch=         111 AvBLen=         8.0
 IPart= 20 NShTot=         800 NBatch=         100 AvBLen=         8.0
 IPart=  1 NShTot=        1064 NBatch=         133 AvBLen=         8.0
 IPart= 13 NShTot=         840 NBatch=         105 AvBLen=         8.0
 IPart= 17 NShTot=         808 NBatch=         101 AvBLen=         8.0
 IPart= 10 NShTot=         856 NBatch=         107 AvBLen=         8.0
 IPart=  3 NShTot=        1000 NBatch=         125 AvBLen=         8.0
 IPart= 23 NShTot=         768 NBatch=          96 AvBLen=         8.0
 IPart= 19 NShTot=         800 NBatch=         100 AvBLen=         8.0
 IPart= 25 NShTot=         760 NBatch=          95 AvBLen=         8.0
 IPart= 21 NShTot=         800 NBatch=         100 AvBLen=         8.0
 IPart= 16 NShTot=         808 NBatch=         101 AvBLen=         8.0
 IPart= 18 NShTot=         800 NBatch=         100 AvBLen=         8.0
 IPart= 29 NShTot=         752 NBatch=          94 AvBLen=         8.0
 IPart=  0 NShTot=        1080 NBatch=         135 AvBLen=         8.0
 IPart= 12 NShTot=         840 NBatch=         105 AvBLen=         8.0
 IPart= 14 NShTot=         840 NBatch=         105 AvBLen=         8.0
 IPart=  8 NShTot=         896 NBatch=         112 AvBLen=         8.0
 IPart=  4 NShTot=         976 NBatch=         122 AvBLen=         8.0
 IPart=  2 NShTot=        1000 NBatch=         125 AvBLen=         8.0
 IPart=  6 NShTot=         936 NBatch=         117 AvBLen=         8.0
 IPart= 31 NShTot=         752 NBatch=          94 AvBLen=         8.0
 PrSmSu:  NxtVal=            257.
 l701 out
 I=    0 X=   8.393477789492D-05 Y=  -2.298059819417D-05 Z=  -5.014404534087D-05
 I=    1 X=   8.804750688713D-01 Y=   1.851086465000D+00 Z=   5.881602329022D-01
 I=    2 X=   1.123460233695D-01 Y=   2.359880618467D-01 Z=   3.321373814991D+00
 I=    3 X=   3.104085277931D+00 Y=   2.355320958928D-01 Z=  -1.183350809038D+00
 I=    4 X=  -1.775703017677D+00 Y=   2.556768021420D+00 Z=  -1.184066802557D+00
 I=    5 X=  -8.836835461266D-01 Y=  -1.850471581968D+00 Z=  -5.851405262214D-01
 I=    6 X=  -3.106061907063D+00 Y=  -2.341916611675D-01 Z=   1.181398673431D+00
 I=    7 X=   1.777572611800D+00 Y=  -2.556419308244D+00 Z=   1.181910397108D+00
 I=    8 X=  -1.090305111054D-01 Y=  -2.382920927798D-01 Z=  -3.320284980617D+00
 ICntrl=      2127.
 Calling FoFJK, ICntrl=      2127 FMM=F ISym2X=0 I1Cent= 0 IOpClX= 1 NMat=1 NMatS=1 NMatT=0.
 FoFJK:  IHMeth= 1 ICntrl=    2127 DoSepK=T KAlg= 0 I1Cent=   0 FoldK=F
 IRaf=         1 NMat=   1 IRICut=       1 DoRegI=T DoRafI=F ISym2E= 0.
 FoFCou: FMM=F IPFlag=           0 FMFlag=      100000 FMFlg1=         800
         NFxFlg=           0 DoJE=F BraDBF=F KetDBF=F FulRan=T
         wScrn=  0.000000 ICntrl=    2527 IOpCl=  0 I1Cent=           0 NGrid=           0
         NMat0=    1 NMatS0=      1 NMatT0=    0 NMatD0=    1 NMtDS0=    0 NMtDT0=    0
 Symmetry not used in FoFCou.
 FoFCou:  KetSym=F NOpSet=  1 NOpAb=1 NOp=  1.
 FoFCou:  CnvScl= 1.00D+00 Thresh= 1.00D-10 IAcrcy=      10.
 PrismS was handed   419076362 working-precision words and  3403 shell-pairs
 FoFCou: LinMIO=F DoNuc=F BraDBF=F KetDBF=F HaveP=T PDBF=F HaveZ=T HaveW=F
         NIJTC =      10 NIJTAt=       0 NIJTCD=       0 NIJTT =      10
         IJTBeg=       1 IJTEnd=      10 KLTBeg=       1 KLTEnd=      10
         IPTBeg=       1 IPTEnd=      10 IPTBCv=       1 IPTECv=      10
         IZTBeg=       1 IZTEnd=      10 IZTBCv=       1 IZTECv=      10
         IWTBeg=      11 IWTEnd=      10 IWTBCv=      11 IWTECv=      10
         INTBeg=       1 INTEnd=       0 IFTBCv=       1 IFTECv=      10
 NCel replicated for PrismC:     1
 CoulSu:  IncDef=  1024 NBBP=        5791906 NTPThr=   100 NPartT=   32 Incr=        1024 LDynOK=F.
 CoulSu:  NPrtUS=  32 ThrOK=T IAlg=1 NPAlg=1 LenDen=           0 LWGrdD=           0 DoCopy=F.
 Enter PrismC: JobTyp=21 DoJE=F Cont=F.
 PrismC:  IPart=     0 DynPar=T LinDyn=F Incr=        1024 UseFst=F UseS4=T IGathr=2.
 PrismC was handed    13042277 working-precision words and  3403 shell-pairs
 Enter PrismC: JobTyp=21 DoJE=F Cont=F.
 Enter PrismC: JobTyp=21 DoJE=F Cont=F.
 Enter PrismC: JobTyp=21 DoJE=F Cont=F.
 Enter PrismC: JobTyp=21 DoJE=F Cont=F.
 Enter PrismC: JobTyp=21 DoJE=F Cont=F.
 Enter PrismC: JobTyp=21 DoJE=F Cont=F.
 Enter PrismC: JobTyp=21 DoJE=F Cont=F.
 Enter PrismC: JobTyp=21 DoJE=F Cont=F.
 Enter PrismC: JobTyp=21 DoJE=F Cont=F.
 Enter PrismC: JobTyp=21 DoJE=F Cont=F.
 Enter PrismC: JobTyp=21 DoJE=F Cont=F.
 Enter PrismC: JobTyp=21 DoJE=F Cont=F.
 Enter PrismC: JobTyp=21 DoJE=F Cont=F.
 Enter PrismC: JobTyp=21 DoJE=F Cont=F.
 Enter PrismC: JobTyp=21 DoJE=F Cont=F.
 Enter PrismC: JobTyp=21 DoJE=F Cont=F.
 Enter PrismC: JobTyp=21 DoJE=F Cont=F.
 Enter PrismC: JobTyp=21 DoJE=F Cont=F.
 Enter PrismC: JobTyp=21 DoJE=F Cont=F.
 Enter PrismC: JobTyp=21 DoJE=F Cont=F.
 PrismC was handed    13042277 working-precision words and  3403 shell-pairs
 Enter PrismC: JobTyp=21 DoJE=F Cont=F.
 PrismC was handed    13042277 working-precision words and  3403 shell-pairs
 Enter PrismC: JobTyp=21 DoJE=F Cont=F.
 PrismC was handed    13042277 working-precision words and  3403 shell-pairs
 Enter PrismC: JobTyp=21 DoJE=F Cont=F.
 PrismC was handed    13042277 working-precision words and  3403 shell-pairs
 Enter PrismC: JobTyp=21 DoJE=F Cont=F.
 PrismC was handed    13042277 working-precision words and  3403 shell-pairs
 Enter PrismC: JobTyp=21 DoJE=F Cont=F.
 PrismC was handed    13042277 working-precision words and  3403 shell-pairs
 Enter PrismC: JobTyp=21 DoJE=F Cont=F.
 PrismC was handed    13042277 working-precision words and  3403 shell-pairs
 Enter PrismC: JobTyp=21 DoJE=F Cont=F.
 PrismC was handed    13042277 working-precision words and  3403 shell-pairs
 Enter PrismC: JobTyp=21 DoJE=F Cont=F.
 PrismC was handed    13042277 working-precision words and  3403 shell-pairs
 Enter PrismC: JobTyp=21 DoJE=F Cont=F.
 PrismC was handed    13042277 working-precision words and  3403 shell-pairs
 Enter PrismC: JobTyp=21 DoJE=F Cont=F.
 PrismC was handed    13042277 working-precision words and  3403 shell-pairs
 Enter PrismC: JobTyp=21 DoJE=F Cont=F.
 PrismC was handed    13042277 working-precision words and  3403 shell-pairs
 PrismC was handed    13042277 working-precision words and  3403 shell-pairs
 PrismC was handed    13042277 working-precision words and  3403 shell-pairs
 PrismC was handed    13042277 working-precision words and  3403 shell-pairs
 PrismC was handed    13042277 working-precision words and  3403 shell-pairs
 PrismC was handed    13042277 working-precision words and  3403 shell-pairs
 PrismC was handed    13042277 working-precision words and  3403 shell-pairs
 PrismC was handed    13042277 working-precision words and  3403 shell-pairs
 PrismC was handed    13042277 working-precision words and  3403 shell-pairs
 PrismC was handed    13042277 working-precision words and  3403 shell-pairs
 PrismC was handed    13042277 working-precision words and  3403 shell-pairs
 PrismC was handed    13042277 working-precision words and  3403 shell-pairs
 PrismC was handed    13042277 working-precision words and  3403 shell-pairs
 PrismC was handed    13042277 working-precision words and  3403 shell-pairs
 PrismC was handed    13042277 working-precision words and  3403 shell-pairs
 PrismC was handed    13042277 working-precision words and  3403 shell-pairs
 PrismC was handed    13042277 working-precision words and  3403 shell-pairs
 PrismC was handed    13042277 working-precision words and  3403 shell-pairs
 PrismC was handed    13042277 working-precision words and  3403 shell-pairs
 PrismC was handed    13042277 working-precision words and  3403 shell-pairs
 IPart=  1 NShTot=      181812 NShNF=      181812 NShFF=           0 NBatch=        1501 AvBLen=       121.1
 IPart= 25 NShTot=      178960 NShNF=      178960 NShFF=           0 NBatch=        1643 AvBLen=       108.9
 IPart= 12 NShTot=      180210 NShNF=      180210 NShFF=           0 NBatch=        1588 AvBLen=       113.5
 IPart= 28 NShTot=      189305 NShNF=      189305 NShFF=           0 NBatch=        1655 AvBLen=       114.4
 IPart= 16 NShTot=      187421 NShNF=      187421 NShFF=           0 NBatch=        1622 AvBLen=       115.5
 IPart=  7 NShTot=      177831 NShNF=      177831 NShFF=           0 NBatch=        1641 AvBLen=       108.4
 IPart=  0 NShTot=      165171 NShNF=      165171 NShFF=           0 NBatch=        1245 AvBLen=       132.7
 IPart= 11 NShTot=      171915 NShNF=      171915 NShFF=           0 NBatch=        1374 AvBLen=       125.1
 IPart=  6 NShTot=      171846 NShNF=      171846 NShFF=           0 NBatch=        1582 AvBLen=       108.6
 IPart= 26 NShTot=      190704 NShNF=      190704 NShFF=           0 NBatch=        1491 AvBLen=       127.9
 IPart=  8 NShTot=      159671 NShNF=      159671 NShFF=           0 NBatch=        1603 AvBLen=        99.6
 IPart= 17 NShTot=      168864 NShNF=      168864 NShFF=           0 NBatch=        1449 AvBLen=       116.5
 IPart= 20 NShTot=      182660 NShNF=      182660 NShFF=           0 NBatch=        1622 AvBLen=       112.6
 IPart= 21 NShTot=      162393 NShNF=      162393 NShFF=           0 NBatch=        1635 AvBLen=        99.3
 IPart= 10 NShTot=      171292 NShNF=      171292 NShFF=           0 NBatch=        1612 AvBLen=       106.3
 IPart=  5 NShTot=      177064 NShNF=      177064 NShFF=           0 NBatch=        1664 AvBLen=       106.4
 IPart=  9 NShTot=      168195 NShNF=      168195 NShFF=           0 NBatch=        1622 AvBLen=       103.7
 IPart= 22 NShTot=      182953 NShNF=      182953 NShFF=           0 NBatch=        1324 AvBLen=       138.2
 IPart= 31 NShTot=      181432 NShNF=      181432 NShFF=           0 NBatch=        1637 AvBLen=       110.8
 IPart= 14 NShTot=      168924 NShNF=      168924 NShFF=           0 NBatch=        1597 AvBLen=       105.8
 IPart= 30 NShTot=      157213 NShNF=      157213 NShFF=           0 NBatch=        1655 AvBLen=        95.0
 IPart= 13 NShTot=      168981 NShNF=      168981 NShFF=           0 NBatch=        1457 AvBLen=       116.0
 IPart=  2 NShTot=      175838 NShNF=      175838 NShFF=           0 NBatch=        1613 AvBLen=       109.0
 IPart=  3 NShTot=      183030 NShNF=      183030 NShFF=           0 NBatch=        1663 AvBLen=       110.1
 IPart= 18 NShTot=      168625 NShNF=      168625 NShFF=           0 NBatch=        1550 AvBLen=       108.8
 IPart= 27 NShTot=      163907 NShNF=      163907 NShFF=           0 NBatch=        1598 AvBLen=       102.6
 IPart= 29 NShTot=      165862 NShNF=      165862 NShFF=           0 NBatch=        1507 AvBLen=       110.1
 IPart= 23 NShTot=      165172 NShNF=      165172 NShFF=           0 NBatch=        1587 AvBLen=       104.1
 IPart=  4 NShTot=      170181 NShNF=      170181 NShFF=           0 NBatch=        1598 AvBLen=       106.5
 IPart= 15 NShTot=      171324 NShNF=      171324 NShFF=           0 NBatch=        1574 AvBLen=       108.8
 IPart= 24 NShTot=      171071 NShNF=      171071 NShFF=           0 NBatch=        1357 AvBLen=       126.1
 IPart= 19 NShTot=      173648 NShNF=      173648 NShFF=           0 NBatch=        1602 AvBLen=       108.4
 CoulSu:  NxtVal=        6338561.
 FoFCou: FMM=F IPFlag=           0 FMFlag=      100000 FMFlg1=         800
         NFxFlg=           0 DoJE=F BraDBF=F KetDBF=F FulRan=T
         wScrn=  0.000000 ICntrl=    2127 IOpCl=  1 I1Cent=           0 NGrid=           0
         NMat0=    1 NMatS0=      0 NMatT0=    1 NMatD0=    1 NMtDS0=    0 NMtDT0=    0
         CW=    0.222036    0.777964
         WU=    0.000000   12.500000
 Symmetry not used in FoFCou.
 FoFCou:  KetSym=F NOpSet=  1 NOpAb=1 NOp=  1.
 FoFCou:  CnvScl= 1.00D+00 Thresh= 1.00D-10 IAcrcy=      10.
 PrismS was handed   419073015 working-precision words and  3403 shell-pairs
 FoFCou: LinMIO=F DoNuc=F BraDBF=F KetDBF=F HaveP=T PDBF=F HaveZ=T HaveW=F
         NIJTC =      10 NIJTAt=       0 NIJTCD=       0 NIJTT =      10
         IJTBeg=       1 IJTEnd=      10 KLTBeg=       1 KLTEnd=      10
         IPTBeg=       1 IPTEnd=      10 IPTBCv=       1 IPTECv=      10
         IZTBeg=       1 IZTEnd=      10 IZTBCv=       1 IZTECv=      10
         IWTBeg=      11 IWTEnd=      10 IWTBCv=      11 IWTECv=      10
         INTBeg=       1 INTEnd=       0 IFTBCv=       1 IFTECv=      10
 NCel replicated for PrismC:     1
 CoulSu:  IncDef=  1024 NBBP=        5791906 NTPThr=   100 NPartT=   32 Incr=        1024 LDynOK=F.
 CoulSu:  NPrtUS=  32 ThrOK=T IAlg=1 NPAlg=1 LenDen=           0 LWGrdD=           0 DoCopy=F.
 Enter PrismC: JobTyp=21 DoJE=F Cont=F.
 Linear combination for Coulomb/exchange, wScrn=  0.000000
 CW=    0.222036    0.777964
 WU=    0.000000   12.500000
 PrismC:  IPart=     0 DynPar=T LinDyn=F Incr=        1024 UseFst=F UseS4=T IGathr=2.
 PrismC was handed    13042173 working-precision words and  3403 shell-pairs
 Enter PrismC: JobTyp=21 DoJE=F Cont=F.
 Enter PrismC: JobTyp=21 DoJE=F Cont=F.
 Enter PrismC: JobTyp=21 DoJE=F Cont=F.
 Linear combination for Coulomb/exchange, wScrn=  0.000000
 CW=    0.222036    0.777964
 WU=    0.000000   12.500000
 Enter PrismC: JobTyp=21 DoJE=F Cont=F.
 Linear combination for Coulomb/exchange, wScrn=  0.000000
 CW=    0.222036    0.777964
 WU=    0.000000   12.500000
 Enter PrismC: JobTyp=21 DoJE=F Cont=F.
 Linear combination for Coulomb/exchange, wScrn=  0.000000
 CW=    0.222036    0.777964
 WU=    0.000000   12.500000
 Enter PrismC: JobTyp=21 DoJE=F Cont=F.
 Linear combination for Coulomb/exchange, wScrn=  0.000000
 CW=    0.222036    0.777964
 WU=    0.000000   12.500000
 Enter PrismC: JobTyp=21 DoJE=F Cont=F.
 Linear combination for Coulomb/exchange, wScrn=  0.000000
 CW=    0.222036    0.777964
 WU=    0.000000   12.500000
 PrismC was handed    13042173 working-precision words and  3403 shell-pairs
 Enter PrismC: JobTyp=21 DoJE=F Cont=F.
 Linear combination for Coulomb/exchange, wScrn=  0.000000
 CW=    0.222036    0.777964
 WU=    0.000000   12.500000
 Enter PrismC: JobTyp=21 DoJE=F Cont=F.
 Linear combination for Coulomb/exchange, wScrn=  0.000000
 CW=    0.222036    0.777964
 Enter PrismC: JobTyp=21 DoJE=F Cont=F.
 Enter PrismC: JobTyp=21 DoJE=F Cont=F.
 Linear combination for Coulomb/exchange, wScrn=  0.000000
 CW=    0.222036    0.777964
 WU=    0.000000   12.500000
 Enter PrismC: JobTyp=21 DoJE=F Cont=F.
 Linear combination for Coulomb/exchange, wScrn=  0.000000
 CW=    0.222036    0.777964
 WU=    0.000000   12.500000
 Enter PrismC: JobTyp=21 DoJE=F Cont=F.
 Linear combination for Coulomb/exchange, wScrn=  0.000000
 CW=    0.222036    0.777964
 WU=    0.000000   12.500000
 Enter PrismC: JobTyp=21 DoJE=F Cont=F.
 Linear combination for Coulomb/exchange, wScrn=  0.000000
 CW=    0.222036    0.777964
 WU=    0.000000   12.500000
 Enter PrismC: JobTyp=21 DoJE=F Cont=F.
 Linear combination for Coulomb/exchange, wScrn=  0.000000
 CW=    0.222036    0.777964
 WU=    0.000000   12.500000
 Enter PrismC: JobTyp=21 DoJE=F Cont=F.
 Linear combination for Coulomb/exchange, wScrn=  0.000000
 CW=    0.222036    0.777964
 WU=    0.000000   12.500000
 Enter PrismC: JobTyp=21 DoJE=F Cont=F.
 Linear combination for Coulomb/exchange, wScrn=  0.000000
 CW=    0.222036    0.777964
 WU=    0.000000   12.500000
 Enter PrismC: JobTyp=21 DoJE=F Cont=F.
 Linear combination for Coulomb/exchange, wScrn=  0.000000
 CW=    0.222036    0.777964
 WU=    0.000000   12.500000
 Linear combination for Coulomb/exchange, wScrn=  0.000000
 CW=    0.222036    0.777964
 WU=    0.000000   12.500000
 PrismC was handed    13042173 working-precision words and  3403 shell-pairs
 Enter PrismC: JobTyp=21 DoJE=F Cont=F.
 Linear combination for Coulomb/exchange, wScrn=  0.000000
 CW=    0.222036    0.777964
 WU=    0.000000   12.500000
 Enter PrismC: JobTyp=21 DoJE=F Cont=F.
 Linear combination for Coulomb/exchange, wScrn=  0.000000
 CW=    0.222036    0.777964
 WU=    0.000000   12.500000
 Enter PrismC: JobTyp=21 DoJE=F Cont=F.
 Linear combination for Coulomb/exchange, wScrn=  0.000000
 CW=    0.222036    0.777964
 WU=    0.000000   12.500000
 Enter PrismC: JobTyp=21 DoJE=F Cont=F.
 Linear combination for Coulomb/exchange, wScrn=  0.000000
 CW=    0.222036    0.777964
 WU=    0.000000   12.500000
 Enter PrismC: JobTyp=21 DoJE=F Cont=F.
 Linear combination for Coulomb/exchange, wScrn=  0.000000
 CW=    0.222036    0.777964
 WU=    0.000000   12.500000
 WU=    0.000000   12.500000
 PrismC was handed    13042173 working-precision words and  3403 shell-pairs
 Linear combination for Coulomb/exchange, wScrn=  0.000000
 CW=    0.222036    0.777964
 WU=    0.000000   12.500000
 PrismC was handed    13042173 working-precision words and  3403 shell-pairs
 PrismC was handed    13042173 working-precision words and  3403 shell-pairs
 Enter PrismC: JobTyp=21 DoJE=F Cont=F.
 Linear combination for Coulomb/exchange, wScrn=  0.000000
 CW=    0.222036    0.777964
 WU=    0.000000   12.500000
 Enter PrismC: JobTyp=21 DoJE=F Cont=F.
 Linear combination for Coulomb/exchange, wScrn=  0.000000
 CW=    0.222036    0.777964
 WU=    0.000000   12.500000
 PrismC was handed    13042173 working-precision words and  3403 shell-pairs
 PrismC was handed    13042173 working-precision words and  3403 shell-pairs
 PrismC was handed    13042173 working-precision words and  3403 shell-pairs
 PrismC was handed    13042173 working-precision words and  3403 shell-pairs
 Enter PrismC: JobTyp=21 DoJE=F Cont=F.
 Linear combination for Coulomb/exchange, wScrn=  0.000000
 CW=    0.222036    0.777964
 WU=    0.000000   12.500000
 Enter PrismC: JobTyp=21 DoJE=F Cont=F.
 Linear combination for Coulomb/exchange, wScrn=  0.000000
 CW=    0.222036    0.777964
 WU=    0.000000   12.500000
 Enter PrismC: JobTyp=21 DoJE=F Cont=F.
 Linear combination for Coulomb/exchange, wScrn=  0.000000
 CW=    0.222036    0.777964
 WU=    0.000000   12.500000
 Enter PrismC: JobTyp=21 DoJE=F Cont=F.
 Linear combination for Coulomb/exchange, wScrn=  0.000000
 CW=    0.222036    0.777964
 WU=    0.000000   12.500000
 PrismC was handed    13042173 working-precision words and  3403 shell-pairs
 PrismC was handed    13042173 working-precision words and  3403 shell-pairs
 PrismC was handed    13042173 working-precision words and  3403 shell-pairs
 PrismC was handed    13042173 working-precision words and  3403 shell-pairs
 Enter PrismC: JobTyp=21 DoJE=F Cont=F.
 Linear combination for Coulomb/exchange, wScrn=  0.000000
 CW=    0.222036    0.777964
 WU=    0.000000   12.500000
 Enter PrismC: JobTyp=21 DoJE=F Cont=F.
 Linear combination for Coulomb/exchange, wScrn=  0.000000
 CW=    0.222036    0.777964
 WU=    0.000000   12.500000
 PrismC was handed    13042173 working-precision words and  3403 shell-pairs
 PrismC was handed    13042173 working-precision words and  3403 shell-pairs
 PrismC was handed    13042173 working-precision words and  3403 shell-pairs
 PrismC was handed    13042173 working-precision words and  3403 shell-pairs
 Linear combination for Coulomb/exchange, wScrn=  0.000000
 CW=    0.222036    0.777964
 WU=    0.000000   12.500000
 PrismC was handed    13042173 working-precision words and  3403 shell-pairs
 PrismC was handed    13042173 working-precision words and  3403 shell-pairs
 PrismC was handed    13042173 working-precision words and  3403 shell-pairs
 PrismC was handed    13042173 working-precision words and  3403 shell-pairs
 PrismC was handed    13042173 working-precision words and  3403 shell-pairs
 PrismC was handed    13042173 working-precision words and  3403 shell-pairs
 PrismC was handed    13042173 working-precision words and  3403 shell-pairs
 PrismC was handed    13042173 working-precision words and  3403 shell-pairs
 PrismC was handed    13042173 working-precision words and  3403 shell-pairs
 PrismC was handed    13042173 working-precision words and  3403 shell-pairs
 PrismC was handed    13042173 working-precision words and  3403 shell-pairs
 PrismC was handed    13042173 working-precision words and  3403 shell-pairs
 PrismC was handed    13042173 working-precision words and  3403 shell-pairs
 PrismC was handed    13042173 working-precision words and  3403 shell-pairs
 IPart=  9 NShTot=      188183 NShNF=      188183 NShFF=           0 NBatch=        1908 AvBLen=        98.6
 IPart= 20 NShTot=      184866 NShNF=      184866 NShFF=           0 NBatch=        2022 AvBLen=        91.4
 IPart=  6 NShTot=      164037 NShNF=      164037 NShFF=           0 NBatch=        1817 AvBLen=        90.3
 IPart= 18 NShTot=      162414 NShNF=      162414 NShFF=           0 NBatch=        1920 AvBLen=        84.6
 IPart=  0 NShTot=      166854 NShNF=      166854 NShFF=           0 NBatch=        1604 AvBLen=       104.0
 IPart= 24 NShTot=      180528 NShNF=      180528 NShFF=           0 NBatch=        1990 AvBLen=        90.7
 IPart= 14 NShTot=      182484 NShNF=      182484 NShFF=           0 NBatch=        1891 AvBLen=        96.5
 IPart= 21 NShTot=      174370 NShNF=      174370 NShFF=           0 NBatch=        1821 AvBLen=        95.8
 IPart= 19 NShTot=      171749 NShNF=      171749 NShFF=           0 NBatch=        1972 AvBLen=        87.1
 IPart= 11 NShTot=      183175 NShNF=      183175 NShFF=           0 NBatch=        1927 AvBLen=        95.1
 IPart=  3 NShTot=      169614 NShNF=      169614 NShFF=           0 NBatch=        1957 AvBLen=        86.7
 IPart= 22 NShTot=      176846 NShNF=      176846 NShFF=           0 NBatch=        1955 AvBLen=        90.5
 IPart= 27 NShTot=      162787 NShNF=      162787 NShFF=           0 NBatch=        1711 AvBLen=        95.1
 IPart= 13 NShTot=      175097 NShNF=      175097 NShFF=           0 NBatch=        1951 AvBLen=        89.7
 IPart= 17 NShTot=      186384 NShNF=      186384 NShFF=           0 NBatch=        1807 AvBLen=       103.1
 IPart=  5 NShTot=      177658 NShNF=      177658 NShFF=           0 NBatch=        1958 AvBLen=        90.7
 IPart=  2 NShTot=      173271 NShNF=      173271 NShFF=           0 NBatch=        1837 AvBLen=        94.3
 IPart= 15 NShTot=      182455 NShNF=      182455 NShFF=           0 NBatch=        1917 AvBLen=        95.2
 IPart= 10 NShTot=      154500 NShNF=      154500 NShFF=           0 NBatch=        1990 AvBLen=        77.6
 IPart=  4 NShTot=      163509 NShNF=      163509 NShFF=           0 NBatch=        1932 AvBLen=        84.6
 IPart=  7 NShTot=      164679 NShNF=      164679 NShFF=           0 NBatch=        1908 AvBLen=        86.3
 IPart= 29 NShTot=      160788 NShNF=      160788 NShFF=           0 NBatch=        2001 AvBLen=        80.4
 IPart=  1 NShTot=      176018 NShNF=      176018 NShFF=           0 NBatch=        1979 AvBLen=        88.9
 IPart=  8 NShTot=      172740 NShNF=      172740 NShFF=           0 NBatch=        1980 AvBLen=        87.2
 IPart= 12 NShTot=      179008 NShNF=      179008 NShFF=           0 NBatch=        1901 AvBLen=        94.2
 IPart= 26 NShTot=      175578 NShNF=      175578 NShFF=           0 NBatch=        1934 AvBLen=        90.8
 IPart= 30 NShTot=      181242 NShNF=      181242 NShFF=           0 NBatch=        1961 AvBLen=        92.4
 IPart= 16 NShTot=      159771 NShNF=      159771 NShFF=           0 NBatch=        1887 AvBLen=        84.7
 IPart= 23 NShTot=      179225 NShNF=      179225 NShFF=           0 NBatch=        1893 AvBLen=        94.7
 IPart= 28 NShTot=      178184 NShNF=      178184 NShFF=           0 NBatch=        1976 AvBLen=        90.2
 IPart= 31 NShTot=      175801 NShNF=      175801 NShFF=           0 NBatch=        1734 AvBLen=       101.4
 IPart= 25 NShTot=      163676 NShNF=      163676 NShFF=           0 NBatch=        1803 AvBLen=        90.8
 CoulSu:  NxtVal=        6338561.
 ReadGW:  IGet=0 IStart=           1 Next=           1 LGW=           0.
 Remaining memory in FofDFT      399.87 Mw
 CkSvGd:  ISavGI=        -1 IRadAn=       5 IRASav=       5 ISavGd=        -1.
 CalDSu:  NPrtUS=  32 ThrOK=T IAlg=1 NPAlg=2 DoDPD=T LenP=       33930 LenD1P=             0.
 IPart=  0 IRanGd=          0 ScrnBf=T ScrnGd=T RCrit=4.00D+00 DoMicB=T.
 IPart= 24         5303 of         5818 points in       7 batches and       27 microbatches, Max-NSigAt=       8 Max-NSgAt2=       8
 IPart= 21         5385 of         6282 points in       7 batches and       46 microbatches, Max-NSigAt=       8 Max-NSgAt2=       8
 IPart=  4         4800 of         5146 points in       5 batches and       32 microbatches, Max-NSigAt=       8 Max-NSgAt2=       8
 IPart= 17         5638 of         6362 points in       7 batches and       15 microbatches, Max-NSigAt=       8 Max-NSgAt2=       8
 IPart=  0         5395 of         6322 points in       7 batches and       24 microbatches, Max-NSigAt=       8 Max-NSgAt2=       8
 IPart=  6         5392 of         6064 points in       7 batches and       27 microbatches, Max-NSigAt=       8 Max-NSgAt2=       8
 IPart= 12         5198 of         6108 points in       9 batches and       48 microbatches, Max-NSigAt=       8 Max-NSgAt2=       8
 IPart= 30         5553 of         6298 points in       7 batches and       25 microbatches, Max-NSigAt=       8 Max-NSgAt2=       8
 IPart= 29         5108 of         5524 points in       6 batches and       23 microbatches, Max-NSigAt=       8 Max-NSgAt2=       8
 IPart=  7         5832 of         6824 points in       9 batches and       46 microbatches, Max-NSigAt=       8 Max-NSgAt2=       8
 IPart= 26         4600 of         4744 points in       4 batches and       15 microbatches, Max-NSigAt=       8 Max-NSgAt2=       8
 IPart= 19         4503 of         4720 points in       4 batches and       14 microbatches, Max-NSigAt=       8 Max-NSgAt2=       8
 IPart= 28         6219 of         7296 points in      10 batches and       27 microbatches, Max-NSigAt=       8 Max-NSgAt2=       8
 IPart= 11         4940 of         5318 points in       6 batches and       30 microbatches, Max-NSigAt=       8 Max-NSgAt2=       8
 IPart= 22         5395 of         6252 points in       9 batches and       55 microbatches, Max-NSigAt=       8 Max-NSgAt2=       8
 IPart= 16         4381 of         4748 points in       5 batches and       26 microbatches, Max-NSigAt=       8 Max-NSgAt2=       8
 IPart=  8         4685 of         4920 points in       5 batches and       28 microbatches, Max-NSigAt=       8 Max-NSgAt2=       8
 IPart= 23         4996 of         5750 points in       7 batches and       55 microbatches, Max-NSigAt=       8 Max-NSgAt2=       8
 IPart=  5         5356 of         5996 points in       7 batches and       26 microbatches, Max-NSigAt=       8 Max-NSgAt2=       8
 IPart=  1         5226 of         5722 points in       6 batches and       27 microbatches, Max-NSigAt=       8 Max-NSgAt2=       8
 IPart=  2         5202 of         5722 points in       6 batches and       27 microbatches, Max-NSigAt=       8 Max-NSgAt2=       8
 IPart= 18         5044 of         5352 points in       5 batches and       25 microbatches, Max-NSigAt=       8 Max-NSgAt2=       8
 IPart= 20         5021 of         5308 points in       5 batches and       31 microbatches, Max-NSigAt=       8 Max-NSgAt2=       8
 IPart=  3         5880 of         6588 points in       7 batches and       43 microbatches, Max-NSigAt=       8 Max-NSgAt2=       8
 IPart= 15         5141 of         5956 points in       7 batches and       36 microbatches, Max-NSigAt=       8 Max-NSgAt2=       8
 IPart= 27         5030 of         5510 points in       6 batches and       32 microbatches, Max-NSigAt=       8 Max-NSgAt2=       8
 IPart= 14         5146 of         5524 points in       6 batches and       36 microbatches, Max-NSigAt=       8 Max-NSgAt2=       8
 IPart= 10         5545 of         6156 points in       7 batches and       54 microbatches, Max-NSigAt=       8 Max-NSgAt2=       8
 IPart= 13         5311 of         5928 points in       6 batches and       26 microbatches, Max-NSigAt=       8 Max-NSgAt2=       8
 IPart= 25         5014 of         5324 points in       5 batches and       22 microbatches, Max-NSigAt=       8 Max-NSgAt2=       8
 IPart= 31         5043 of         5324 points in       5 batches and       28 microbatches, Max-NSigAt=       8 Max-NSgAt2=       8
 IPart=  9         5662 of         6306 points in       7 batches and       34 microbatches, Max-NSigAt=       8 Max-NSgAt2=       8
 Forces at end of L703
 I=    0 X=   8.393477789492D-05 Y=  -2.298059819417D-05 Z=  -5.014404534087D-05
 I=    1 X=   3.255975243331D-02 Y=   6.846045552348D-02 Z=   2.197234270900D-02
 I=    2 X=   2.638438297237D-05 Y=   3.294260986153D-05 Z=   1.924280438174D-03
 I=    3 X=   1.916237070291D-03 Y=   1.115924620949D-04 Z=  -8.472614338384D-04
 I=    4 X=  -1.122536658489D-03 Y=   1.546906559612D-03 Z=  -8.595071773274D-04
 I=    5 X=  -3.285671595046D-02 Y=  -6.844880588893D-02 Z=  -2.155657812643D-02
 I=    6 X=  -1.778241385074D-03 Y=  -3.785103857715D-05 Z=   7.415561348332D-04
 I=    7 X=   1.214660914914D-03 Y=  -1.541530414429D-03 Z=   7.209689277801D-04
 I=    8 X=   4.045919254793D-05 Y=  -1.237098131058D-04 Z=  -2.095801472172D-03
 FrcOut:
 IF    =    45 IFX   =    69 IFXYZ =    93
 IFFX  =   117 IFFFX =   417 IFLen =    24
 IFFLen=   300 IFFFLn=     0 IEDerv=   417
 LEDerv=  1205 IFroze=  1904 ICStrt=108261
 FCEst1:  Generated internal coordinate force constants:
                1             2             3             4             5 
      1  0.614733D+00
      2 -0.109933D+00  0.435877D+00
      3 -0.348109D-01 -0.732270D-01  0.644853D+00
      4 -0.844669D-01  0.867537D-02 -0.471607D-02  0.619937D-01
      5  0.867542D-02 -0.703584D-01 -0.991087D-02 -0.421843D-02  0.551288D-01
      6  0.000000D+00  0.000000D+00 -0.352437D+00  0.000000D+00  0.000000D+00
      7 -0.313572D+00  0.335211D-02  0.963095D-01  0.148176D-01  0.129665D-03
      8 -0.578139D-02 -0.702389D-01  0.118133D-01  0.334583D-03  0.986759D-03
      9  0.916245D-01  0.797486D-02 -0.122959D+00  0.352519D-01  0.308480D-03
     10 -0.165910D+00  0.114282D+00 -0.516218D-01  0.626803D-02 -0.662365D-02
     11  0.123416D+00 -0.217870D+00  0.821993D-01 -0.682852D-02  0.954261D-02
     12 -0.516456D-01  0.761418D-01 -0.122994D+00 -0.220014D-01  0.275419D-01
     13 -0.583609D-01 -0.131008D-01 -0.411949D-02  0.138747D-02  0.203704D-02
     14 -0.131177D-01 -0.796468D-01 -0.870151D-02  0.203716D-02  0.470016D-02
     15 -0.413094D-02 -0.871435D-02 -0.549063D-01 -0.853486D-02 -0.179393D-01
     16 -0.284172D-02  0.791157D-03  0.177437D-02 -0.186109D-03  0.885382D-04
     17 -0.157558D-01  0.470926D-02  0.881679D-02  0.228835D-03 -0.108864D-03
     18 -0.675510D-02  0.188028D-02  0.421913D-02 -0.443943D-03  0.211198D-03
     19  0.902099D-02 -0.609958D-02  0.572107D-02 -0.294954D-03  0.140319D-03
     20  0.104410D-01 -0.716099D-02  0.694213D-02  0.000000D+00  0.000000D+00
     21  0.571837D-02 -0.405359D-02  0.421856D-02  0.443727D-03 -0.211096D-03
     22  0.139731D-02  0.203307D-02 -0.853675D-02  0.481152D-03 -0.228900D-03
     23  0.205584D-02  0.468896D-02 -0.179321D-01 -0.229096D-03  0.108989D-03
     24  0.000000D+00 -0.198937D-05  0.692337D-05  0.000000D+00  0.000000D+00
                6             7             8             9            10 
      6  0.352437D+00
      7  0.000000D+00  0.308527D+00
      8  0.000000D+00 -0.163682D-02  0.550642D-01
      9  0.000000D+00 -0.103628D+00 -0.389410D-02  0.105549D+00
     10  0.000000D+00 -0.693318D-02  0.228278D-01 -0.164944D-01  0.157558D+00
     11  0.000000D+00 -0.263432D-02  0.948754D-02 -0.626719D-02 -0.124385D+00
     12  0.000000D+00  0.554222D-02 -0.167465D-01  0.131853D-01  0.623874D-01
     13  0.000000D+00 -0.283901D-02 -0.157442D-01 -0.675417D-02  0.901739D-02
     14  0.000000D+00  0.789301D-03  0.470048D-02  0.187779D-02 -0.610039D-02
     15  0.000000D+00  0.177617D-02  0.882712D-02  0.422560D-02  0.572905D-02
     16  0.000000D+00  0.720993D-04 -0.885072D-04  0.171528D-03  0.114173D-03
     17  0.000000D+00 -0.886516D-04  0.108826D-03 -0.210907D-03 -0.140384D-03
     18  0.000000D+00  0.171985D-03 -0.211125D-03  0.409163D-03  0.272347D-03
     19  0.000000D+00  0.114266D-03 -0.140270D-03  0.271846D-03  0.180946D-03
     20  0.000000D+00  0.000000D+00  0.000000D+00  0.000000D+00  0.000000D+00
     21  0.000000D+00 -0.171902D-03  0.211022D-03 -0.408964D-03 -0.272214D-03
     22  0.000000D+00 -0.186401D-03  0.228820D-03 -0.443458D-03 -0.295174D-03
     23  0.000000D+00  0.887528D-04 -0.108951D-03  0.211148D-03  0.140544D-03
     24  0.000000D+00  0.000000D+00  0.000000D+00  0.000000D+00  0.000000D+00
               11            12            13            14            15 
     11  0.205999D+00
     12 -0.828818D-01  0.105583D+00
     13  0.104327D-01  0.571723D-02  0.615404D+00
     14 -0.715943D-02 -0.405520D-02 -0.110074D+00  0.435788D+00
     15  0.694968D-02  0.422538D-02 -0.350874D-01 -0.728819D-01  0.644270D+00
     16  0.000000D+00 -0.171508D-03 -0.314021D+00  0.347072D-02  0.962865D-01
     17  0.000000D+00  0.210882D-03 -0.567726D-02 -0.703228D-01  0.117640D-01
     18  0.000000D+00 -0.409114D-03  0.915887D-01  0.792931D-02 -0.122915D+00
     19  0.000000D+00 -0.271814D-03 -0.166140D+00  0.114352D+00 -0.515863D-01
     20  0.000000D+00  0.000000D+00  0.123472D+00 -0.217803D+00  0.821281D-01
     21  0.000000D+00  0.408915D-03 -0.515784D-01  0.760532D-01 -0.122819D+00
     22  0.000000D+00  0.443405D-03 -0.844484D-01  0.864244D-02 -0.445207D-02
     23  0.000000D+00 -0.211123D-03  0.865442D-02 -0.702569D-01 -0.101334D-01
     24  0.000000D+00  0.000000D+00  0.233547D-03 -0.221650D-03 -0.352081D+00
               16            17            18            19            20 
     16  0.308978D+00
     17 -0.175616D-02  0.551116D-01
     18 -0.103600D+00 -0.382342D-02  0.105470D+00
     19 -0.690821D-02  0.228288D-01 -0.164963D-01  0.157758D+00
     20 -0.263260D-02  0.951472D-02 -0.628744D-02 -0.124464D+00  0.205934D+00
     21  0.552635D-02 -0.167569D-01  0.131947D-01  0.623505D-01 -0.827689D-01
     22  0.147922D-01  0.360677D-03  0.352627D-01  0.626858D-02 -0.681627D-02
     23  0.126966D-03  0.987129D-03  0.301469D-03 -0.661729D-02  0.951535D-02
     24  0.131941D-04  0.000000D+00  0.314539D-04  0.110219D-04 -0.138733D-04
               21            22            23            24 
     21  0.105448D+00
     22 -0.220164D-01  0.619907D-01
     23  0.275260D-01 -0.422014D-02  0.550656D-01
     24 -0.421989D-04 -0.257345D-03  0.237992D-03  0.352085D+00
 Quadrupole    = 8.31165537D-02-2.17095926D-01 1.33979372D-01
                -1.84370531D-01-5.95340102D-02-1.22310795D-01
 -------------------------------------------------------------------
 Center     Atomic                   Forces (Hartrees/Bohr)
 Number     Number              X              Y              Z
 -------------------------------------------------------------------
      1        6          -0.032559752   -0.068460456   -0.021972343
      2        1          -0.000026384   -0.000032943   -0.001924280
      3        1          -0.001916237   -0.000111592    0.000847261
      4        1           0.001122537   -0.001546907    0.000859507
      5        6           0.032856716    0.068448806    0.021556578
      6        1           0.001778241    0.000037851   -0.000741556
      7        1          -0.001214661    0.001541530   -0.000720969
      8        1          -0.000040459    0.000123710    0.002095801
 -------------------------------------------------------------------
 Cartesian Forces:  Max     0.068460456 RMS     0.022807379
 From PutF, contents of force:
   1   -0.1924280438D-02
   2   -0.2094834482D-02
   3   -0.2092355653D-02
   4   -0.7912664220D-04
   5   -0.1077855232D-03
   6   -0.1990013353D-03
   7   -0.1926645233D-02
   8   -0.2088426059D-02
   9   -0.2095937006D-02
  10   -0.7311123542D-04
  11   -0.7925194057D-04
  12    0.2309175061D-03
  13    0.1390684215D-04
  14    0.5412439029D-04
  15   -0.4001787229D-05
  16   -0.6617806447D-05
  17   -0.1574188164D-04
  18   -0.8079536789D-01
 -----------------------------------------------------------------------------------------------
                       Internal Coordinate Forces (Hartree/Bohr or radian)
  Cent   Atom   N1       Length/X         N2         Alpha/Y        N3         Beta/Z          J
 -----------------------------------------------------------------------------------------------
      1  C 
      2  H        1  -0.001924(     1)
      3  H        1  -0.002095(     2)      2  -0.000079(     8)
      4  H        1  -0.002092(     3)      2  -0.000108(     9)      3  -0.000199(    14)     0
      5  C        1  -0.080795(     4)      2  -0.000016(    10)      3  -0.000007(    15)     0
      6  H        5  -0.001927(     5)      1   0.000014(    11)      2  -0.000004(    16)     0
      7  H        5  -0.002088(     6)      6  -0.000073(    12)      1   0.000054(    17)     0
      8  H        5  -0.002096(     7)      6  -0.000079(    13)      7   0.000231(    18)     0
 -----------------------------------------------------------------------------------------------
 Internal  Forces:  Max     0.080795368 RMS     0.019080171
 Force constants in Cartesian coordinates: 
                1             2             3             4             5 
      1  0.614733D+00
      2 -0.109933D+00  0.435877D+00
      3 -0.348109D-01 -0.732270D-01  0.644853D+00
      4 -0.844669D-01  0.867537D-02 -0.471607D-02  0.619937D-01
      5  0.867542D-02 -0.703584D-01 -0.991087D-02 -0.421843D-02  0.551288D-01
      6  0.000000D+00  0.000000D+00 -0.352437D+00  0.000000D+00  0.000000D+00
      7 -0.313572D+00  0.335211D-02  0.963095D-01  0.148176D-01  0.129665D-03
      8 -0.578139D-02 -0.702389D-01  0.118133D-01  0.334583D-03  0.986759D-03
      9  0.916245D-01  0.797486D-02 -0.122959D+00  0.352519D-01  0.308480D-03
     10 -0.165910D+00  0.114282D+00 -0.516218D-01  0.626803D-02 -0.662365D-02
     11  0.123416D+00 -0.217870D+00  0.821993D-01 -0.682852D-02  0.954261D-02
     12 -0.516456D-01  0.761418D-01 -0.122994D+00 -0.220014D-01  0.275419D-01
     13 -0.583609D-01 -0.131008D-01 -0.411949D-02  0.138747D-02  0.203704D-02
     14 -0.131177D-01 -0.796468D-01 -0.870151D-02  0.203716D-02  0.470016D-02
     15 -0.413094D-02 -0.871435D-02 -0.549063D-01 -0.853486D-02 -0.179393D-01
     16 -0.284172D-02  0.791157D-03  0.177437D-02 -0.186109D-03  0.885382D-04
     17 -0.157558D-01  0.470926D-02  0.881679D-02  0.228835D-03 -0.108864D-03
     18 -0.675510D-02  0.188028D-02  0.421913D-02 -0.443943D-03  0.211198D-03
     19  0.902099D-02 -0.609958D-02  0.572107D-02 -0.294954D-03  0.140319D-03
     20  0.104410D-01 -0.716099D-02  0.694213D-02  0.000000D+00  0.000000D+00
     21  0.571837D-02 -0.405359D-02  0.421856D-02  0.443727D-03 -0.211096D-03
     22  0.139731D-02  0.203307D-02 -0.853675D-02  0.481152D-03 -0.228900D-03
     23  0.205584D-02  0.468896D-02 -0.179321D-01 -0.229096D-03  0.108989D-03
     24  0.000000D+00 -0.198937D-05  0.692337D-05  0.000000D+00  0.000000D+00
                6             7             8             9            10 
      6  0.352437D+00
      7  0.000000D+00  0.308527D+00
      8  0.000000D+00 -0.163682D-02  0.550642D-01
      9  0.000000D+00 -0.103628D+00 -0.389410D-02  0.105549D+00
     10  0.000000D+00 -0.693318D-02  0.228278D-01 -0.164944D-01  0.157558D+00
     11  0.000000D+00 -0.263432D-02  0.948754D-02 -0.626719D-02 -0.124385D+00
     12  0.000000D+00  0.554222D-02 -0.167465D-01  0.131853D-01  0.623874D-01
     13  0.000000D+00 -0.283901D-02 -0.157442D-01 -0.675417D-02  0.901739D-02
     14  0.000000D+00  0.789301D-03  0.470048D-02  0.187779D-02 -0.610039D-02
     15  0.000000D+00  0.177617D-02  0.882712D-02  0.422560D-02  0.572905D-02
     16  0.000000D+00  0.720993D-04 -0.885072D-04  0.171528D-03  0.114173D-03
     17  0.000000D+00 -0.886516D-04  0.108826D-03 -0.210907D-03 -0.140384D-03
     18  0.000000D+00  0.171985D-03 -0.211125D-03  0.409163D-03  0.272347D-03
     19  0.000000D+00  0.114266D-03 -0.140270D-03  0.271846D-03  0.180946D-03
     20  0.000000D+00  0.000000D+00  0.000000D+00  0.000000D+00  0.000000D+00
     21  0.000000D+00 -0.171902D-03  0.211022D-03 -0.408964D-03 -0.272214D-03
     22  0.000000D+00 -0.186401D-03  0.228820D-03 -0.443458D-03 -0.295174D-03
     23  0.000000D+00  0.887528D-04 -0.108951D-03  0.211148D-03  0.140544D-03
     24  0.000000D+00  0.000000D+00  0.000000D+00  0.000000D+00  0.000000D+00
               11            12            13            14            15 
     11  0.205999D+00
     12 -0.828818D-01  0.105583D+00
     13  0.104327D-01  0.571723D-02  0.615404D+00
     14 -0.715943D-02 -0.405520D-02 -0.110074D+00  0.435788D+00
     15  0.694968D-02  0.422538D-02 -0.350874D-01 -0.728819D-01  0.644270D+00
     16  0.000000D+00 -0.171508D-03 -0.314021D+00  0.347072D-02  0.962865D-01
     17  0.000000D+00  0.210882D-03 -0.567726D-02 -0.703228D-01  0.117640D-01
     18  0.000000D+00 -0.409114D-03  0.915887D-01  0.792931D-02 -0.122915D+00
     19  0.000000D+00 -0.271814D-03 -0.166140D+00  0.114352D+00 -0.515863D-01
     20  0.000000D+00  0.000000D+00  0.123472D+00 -0.217803D+00  0.821281D-01
     21  0.000000D+00  0.408915D-03 -0.515784D-01  0.760532D-01 -0.122819D+00
     22  0.000000D+00  0.443405D-03 -0.844484D-01  0.864244D-02 -0.445207D-02
     23  0.000000D+00 -0.211123D-03  0.865442D-02 -0.702569D-01 -0.101334D-01
     24  0.000000D+00  0.000000D+00  0.233547D-03 -0.221650D-03 -0.352081D+00
               16            17            18            19            20 
     16  0.308978D+00
     17 -0.175616D-02  0.551116D-01
[...]
 Frc consts  --      1.3589                 1.3445                 1.3448
 IR Inten    --   6.715                 0.1417E-02             0.1364E-02
  Atom  AN      X      Y      Z        X      Y      Z        X      Y      Z
     1   6     0.01  -0.02   0.05    -0.04   0.01   0.02    -0.01   0.02  -0.04
     2   1    -0.26  -0.07   0.04     0.41  -0.28   0.01     0.27   0.09  -0.03
     3   1    -0.19   0.25  -0.43     0.03   0.16   0.15     0.19  -0.26   0.43
     4   1     0.29   0.08  -0.20     0.14  -0.08  -0.40    -0.30  -0.10   0.20
     5   6     0.01  -0.02   0.05     0.04  -0.01  -0.02     0.01  -0.02   0.04
     6   1    -0.19   0.26  -0.44    -0.03  -0.16  -0.16    -0.18   0.25  -0.42
     7   1     0.30   0.09  -0.21    -0.15   0.08   0.42     0.29   0.10  -0.20
     8   1    -0.26  -0.08   0.04    -0.42   0.29  -0.01    -0.26  -0.09   0.03
                     13                     14                     15
                      A                      A                      A
 Frequencies --   3096.5409              3097.3380              3221.7080
 Red. masses --      1.0209                 1.0214                 1.1128
 Frc consts  --      5.7676                 5.7735                 6.8050
 IR Inten    --  0.7119E-04              33.65                 0.3950E-01
  Atom  AN      X      Y      Z        X      Y      Z        X      Y      Z
     1   6    -0.01  -0.02  -0.01     0.01   0.02   0.01     0.04  -0.03   0.04
     2   1    -0.01  -0.01   0.41     0.01   0.01  -0.41     0.01   0.00  -0.38
     3   1     0.37  -0.01  -0.16    -0.37   0.01   0.16    -0.15  -0.00   0.08
     4   1    -0.25   0.28  -0.16     0.25  -0.28   0.16    -0.33   0.38  -0.21
     5   6     0.01   0.02   0.01     0.01   0.02   0.01    -0.04   0.03  -0.05
     6   1    -0.37   0.01   0.16    -0.37   0.01   0.16     0.13   0.00  -0.07
     7   1     0.25  -0.28   0.16     0.25  -0.28   0.16     0.34  -0.40   0.22
     8   1     0.01   0.01  -0.41     0.01   0.01  -0.41    -0.01  -0.00   0.42
                     16                     17                     18
                      A                      A                      A
 Frequencies --   3222.0274              3226.1482              3226.4549
 Red. masses --      1.1128                 1.1095                 1.1095
 Frc consts  --      6.8066                 6.8035                 6.8050
 IR Inten    --  0.4789E-01              28.49                  28.48    
  Atom  AN      X      Y      Z        X      Y      Z        X      Y      Z
     1   6    -0.05   0.01   0.05    -0.04   0.03  -0.05     0.05  -0.01  -0.05
     2   1    -0.01   0.01  -0.40    -0.01   0.00   0.42     0.01  -0.01   0.42
     3   1     0.53  -0.01  -0.22     0.13   0.01  -0.07    -0.49   0.00   0.21
     4   1     0.09  -0.12   0.08     0.33  -0.40   0.22    -0.06   0.08  -0.06
     5   6     0.05  -0.01  -0.05    -0.04   0.03  -0.04     0.05  -0.01  -0.05
     6   1    -0.49   0.01   0.21     0.16   0.00  -0.08    -0.53   0.00   0.22
     7   1    -0.06   0.08  -0.06     0.32  -0.39   0.21    -0.08   0.11  -0.07
     8   1     0.00  -0.01   0.41    -0.01   0.00   0.38     0.01  -0.01   0.41

 -------------------
 - Thermochemistry -
 -------------------
 Temperature   298.150 Kelvin.  Pressure   1.00000 Atm.
 Atom     1 has atomic number  6 and mass  12.00000
 Atom     2 has atomic number  1 and mass   1.00783
 Atom     3 has atomic number  1 and mass   1.00783
 Atom     4 has atomic number  1 and mass   1.00783
 Atom     5 has atomic number  6 and mass  12.00000
 Atom     6 has atomic number  1 and mass   1.00783
 Atom     7 has atomic number  1 and mass   1.00783
 Atom     8 has atomic number  1 and mass   1.00783
 Molecular mass:    30.04695 amu.
 Principal axes and moments of inertia in atomic units:
                           1         2         3
     Eigenvalues --    23.44525 133.74366 133.74635
           X            0.41245  -0.53236   0.73925
           Y            0.86883  -0.01413  -0.49492
           Z            0.27392   0.84640   0.45670
 This molecule is an asymmetric top.
 Rotational symmetry number  1.
 Rotational temperatures (Kelvin)      3.69430     0.64761     0.64760
 Rotational constants (GHZ):          76.97684    13.49403    13.49376
    1 imaginary frequencies ignored.
 Zero-point vibrational energy     184254.6 (Joules/Mol)
                                   44.03790 (Kcal/Mol)
 Warning -- explicit consideration of   1 degrees of freedom as
           vibrations may cause significant error
 Vibrational temperatures:    202.48   970.06   972.74  1431.47  1432.17
          (Kelvin)           1703.03  1707.99  2103.98  2104.13  2113.38
                             2113.47  4455.23  4456.37  4635.31  4635.77
                             4641.70  4642.14
 
 Zero-point correction=                           0.070179 (Hartree/Particle)
 Thermal correction to Energy=                    0.074050
 Thermal correction to Enthalpy=                  0.074995
 Thermal correction to Gibbs Free Energy=         0.046201
 Sum of electronic and zero-point Energies=            -79.709763
 Sum of electronic and thermal Energies=               -79.705892
 Sum of electronic and thermal Enthalpies=             -79.704947
 Sum of electronic and thermal Free Energies=          -79.733741
 
                     E (Thermal)             CV                S
                      KCal/Mol        Cal/Mol-Kelvin    Cal/Mol-Kelvin
 Total                   46.467             11.162             60.601
 Electronic               0.000              0.000              0.000
 Translational            0.889              2.981             36.134
 Rotational               0.889              2.981             20.667
 Vibrational             44.690              5.200              3.801
 Vibration     1          0.615              1.913              2.794
                       Q            Log10(Q)             Ln(Q)
 Total Bot       0.561193D-21        -21.250888        -48.931978
 Total V=0       0.106925D+12         11.029078         25.395391
 Vib (Bot)       0.118251D-31        -31.927195        -73.515084
 Vib (Bot)    1  0.144461D+01          0.159750          0.367837
 Vib (V=0)       0.225305D+01          0.352771          0.812285
 Vib (V=0)    1  0.202869D+01          0.307215          0.707390
 Electronic      0.100000D+01          0.000000          0.000000
 Translational   0.647375D+07          6.811156         15.683266
 Rotational      0.733080D+04          3.865151          8.899840
 -------------------------------------------------------------------
 Center     Atomic                   Forces (Hartrees/Bohr)
 Number     Number              X              Y              Z
 -------------------------------------------------------------------
      1        6          -0.033182285   -0.069896216   -0.022111147
      2        1          -0.000031190   -0.000064012    0.000031741
      3        1           0.000004332   -0.000093861   -0.000015324
      4        1          -0.000075047   -0.000050396   -0.000013261
      5        6           0.033247155    0.069891221    0.022028364
      6        1          -0.000016911    0.000068513    0.000037894
      7        1           0.000041400    0.000050398    0.000055858
      8        1           0.000012546    0.000094353   -0.000014126
 -------------------------------------------------------------------
 Cartesian Forces:  Max     0.069896216 RMS     0.023229740
 -----------------------------------------------------------------------------------------------
                       Internal Coordinate Forces (Hartree/Bohr or radian)
  Cent   Atom   N1       Length/X         N2         Alpha/Y        N3         Beta/Z          J
 -----------------------------------------------------------------------------------------------
      1  C 
      2  H        1   0.000032(     1)
      3  H        1   0.000010(     2)      2   0.000025(     8)
      4  H        1   0.000013(     3)      2   0.000018(     9)      3  -0.000170(    14)     0
      5  C        1  -0.080692(     4)      2  -0.000001(    10)      3  -0.000001(    15)     0
      6  H        5   0.000030(     5)      1  -0.000001(    11)      2  -0.000004(    16)     0
      7  H        5   0.000010(     6)      6   0.000028(    12)      1   0.000019(    17)     0
      8  H        5   0.000014(     7)      6   0.000026(    13)      7   0.000178(    18)     0
 -----------------------------------------------------------------------------------------------
 Internal  Forces:  Max     0.080692251 RMS     0.019019442

 GradGradGradGradGradGradGradGradGradGradGradGradGradGradGradGradGradGrad
 Berny optimization.
 Search for a local minimum.
 Step number   1 out of a maximum of    2
 All quantities printed in internal units (Hartrees-Bohrs-Radians)
 Second derivative matrix not updated -- analytic derivatives used.
 The second derivative matrix:
                          R1        R2        R3        A2        A3
           R1           0.35792
           R2           0.00118   0.35789
           R3           0.00117   0.00118   0.35783
           A2           0.01720   0.00481  -0.01151   0.18525
           A3           0.01727  -0.01154   0.00469   0.04504   0.18506
           D3           0.00072  -0.01187  -0.00923   0.05386   0.01455
           R21          0.00027  -0.00052   0.00028  -0.00044  -0.00012
           R22          0.00028   0.00028  -0.00052  -0.00012  -0.00045
           R23         -0.00052   0.00027   0.00028  -0.00033  -0.00034
           A22         -0.00012  -0.00033  -0.00045  -0.00171   0.00408
           A23         -0.00044  -0.00033  -0.00012   0.00054  -0.00170
           D23         -0.00086  -0.00039  -0.00049  -0.00162  -0.00064
           ANG2        -0.00024   0.00046  -0.00024  -0.01201   0.00730
           DH3         -0.00037   0.00001   0.00039   0.00106  -0.00896
           DH2          0.00000  -0.00000  -0.00000   0.00131  -0.00131
           DH1         -0.00001   0.00259  -0.00260  -0.03932   0.03942
           ANG1         0.00313  -0.00157  -0.00157   0.01952   0.01958
           BB           0.00135   0.00134   0.00135  -0.00864  -0.00866
                          D3        R21       R22       R23       A22
           D3           0.13510
           R21          0.00049   0.35798
           R22          0.00088   0.00117   0.35781
           R23          0.00040   0.00118   0.00118   0.35783
           A22         -0.00832   0.01726   0.00477  -0.01154   0.18495
           A23          0.00265   0.01718  -0.01150   0.00482   0.04502
           D23          0.00393  -0.00071   0.01184   0.00927  -0.05389
           ANG2        -0.01119   0.00308  -0.00156  -0.00152   0.01952
           DH3          0.01992   0.00002   0.00265  -0.00262  -0.03925
           DH2         -0.00058  -0.00012  -0.00004   0.00012  -0.00149
           DH1         -0.07311   0.00037  -0.00038  -0.00001   0.00901
           ANG1        -0.04574  -0.00028  -0.00020   0.00049   0.00738
           BB           0.01681   0.00134   0.00135   0.00135  -0.00866
                          A23       D23      ANG2       DH3       DH2
           A23          0.18502
           D23         -0.01444   0.13527
           ANG2         0.01970   0.04571   0.15793
           DH3          0.03946   0.07318   0.00013   0.14631
           DH2          0.00149  -0.00052   0.00029  -0.00122   0.00485
           DH1         -0.00106   0.00047   0.03445  -0.01964   0.00112
           ANG1        -0.01176  -0.02320  -0.02025  -0.03435   0.00032
           BB          -0.00865  -0.01677  -0.00003   0.00005  -0.00001
                          DH1      ANG1       BB
           DH1          0.14627
           ANG1        -0.00030   0.15908
           BB           0.00013   0.00007   0.01120
 ITU=  0
     Eigenvalues ---    0.00472   0.04101   0.04353   0.09154   0.09807
     Eigenvalues ---    0.14016   0.16177   0.22391   0.23652   0.26871
     Eigenvalues ---    0.29761   0.35739   0.35817   0.36088   0.36131
     Eigenvalues ---    0.36337   0.363681000.00000
 Angle between quadratic step and forces=  33.83 degrees.
 Linear search not attempted -- first point.
 Variable       Old X    -DE/DX   Delta X   Delta X   Delta X     New X
                                 (Linear)    (Quad)   (Total)
    R1        2.04735   0.00003   0.00000   0.00006   0.00006   2.04741
    R2        2.04743   0.00001   0.00000  -0.00003  -0.00003   2.04739
    R3        2.04743   0.00001   0.00000  -0.00002  -0.00002   2.04741
    A2        1.96879   0.00003   0.00000   0.00053   0.00053   1.96932
    A3        1.96879   0.00002   0.00000   0.00046   0.00046   1.96925
    D3        4.02794  -0.00017   0.00000  -0.00238  -0.00238   4.02556
   R21        2.04734   0.00003   0.00000   0.00005   0.00005   2.04740
   R22        2.04745   0.00001   0.00000  -0.00003  -0.00003   2.04741
   R23        2.04742   0.00001   0.00000  -0.00002  -0.00002   2.04741
   A22        1.96876   0.00003   0.00000   0.00056   0.00056   1.96932
   A23        1.96882   0.00003   0.00000   0.00047   0.00047   1.96929
   D23        2.25524   0.00018   0.00000   0.00237   0.00237   2.25761
   ANG2       1.84834  -0.00000   0.00000  -0.00081  -0.00081   1.84753
   DH3        2.01381   0.00002   0.00000  -0.00103  -0.00103   2.01279
   DH2        1.04737  -0.00000   0.00000  -0.00065  -0.00065   1.04672
   DH1        2.01403  -0.00000   0.00000  -0.00116  -0.00116   2.01287
   ANG1       1.84827  -0.00000   0.00000  -0.00079  -0.00079   1.84748
    BB        3.77945  -0.08069   0.00000   0.00000   0.00000   3.77945
         Item               Value     Threshold  Converged?
 Maximum Force            0.000178     0.000450     YES
 RMS     Force            0.000062     0.000300     YES
 Maximum Displacement     0.002381     0.001800     NO 
 RMS     Displacement     0.000956     0.001200     YES
 Predicted change in Energy=-4.321791D-07
 GradGradGradGradGradGradGradGradGradGradGradGradGradGradGradGradGradGrad


 Test job not archived.
 1\1\GINC-NODE-6-11\Freq\UwB97XD\Aug-CC-pVTZ\C2H6\CAVALLOTTI\27-May-202
 3\1\\#N Geom=AllCheck Guess=TCheck SCRF=Check Test GenChk UwB97XD/Aug-
 CC-pVTZ Freq\\geom 0\\0,1\C\H,1,R1\H,1,R2,2,A2\H,1,R3,2,A3,3,D3,0\C,1,
 BB,2,ANG1,3,DH1,0\H,5,R21,1,ANG2,2,DH2,0\H,5,R22,6,A22,1,DH3,0\H,5,R23
 ,6,A23,7,D23,0\\R1=1.08341132\R2=1.08345214\R3=1.08345587\A2=112.80341
 457\A3=112.80357443\D3=230.78397738\R21=1.08340777\R22=1.08346177\R23=
 1.08345049\A22=112.80169108\A23=112.80526313\D23=129.21592264\ANG2=105
 .90226122\DH3=115.38298288\DH2=60.00964141\DH1=115.39539067\ANG1=105.8
 9793935\BB=2.\\Version=EM64L-G09RevD.01\HF=-79.779942\S2=0.\S2-1=0.\S2
 A=0.\RMSD=1.243e-09\RMSF=2.323e-02\ZeroPoint=0.0701789\Thermal=0.07405
 04\Dipole=0.0000335,-0.0000074,-0.0000261\DipoleDeriv=0.06096,0.031018
 4,0.0098842,0.0307749,0.1114091,0.0204793,0.0098344,0.0206498,0.052909
 7,0.0443609,-0.0290359,-0.013566,-0.0288463,-0.0029112,-0.027703,-0.01
 90708,-0.0403762,-0.1164467,-0.1037522,-0.0482341,0.0431502,-0.0368766
 ,-0.0025579,-0.0157769,0.0487701,-0.0110387,0.0320682,-0.0015779,0.046
 246,-0.0394588,0.0349523,-0.1059506,0.0230106,-0.0395152,0.0307807,0.0
 314893,0.0609217,0.0309943,0.0098797,0.0307956,0.111427,0.0204791,0.00
 98348,0.0206185,0.0529301,-0.1036729,-0.0482441,0.0431097,-0.0368499,-
 0.0025553,-0.0157922,0.0486904,-0.0110462,0.0321235,-0.0015828,0.04628
 35,-0.039497,0.0349161,-0.1059356,0.0230762,-0.039493,0.0307867,0.0314
 712,0.0443433,-0.029028,-0.013502,-0.0288661,-0.0029256,-0.0277732,-0.
 0190506,-0.0403746,-0.1165454\Polar=31.396684,6.252287,41.615665,1.968
 7574,4.1532105,29.7359938\PG=C01 [X(C2H6)]\NImag=1\\0.52792854,-0.1655
 0563,0.25789141,-0.05223684,-0.10998605,0.57212289,-0.04654322,0.00641
 537,-0.00035645,0.04411319,0.00640835,-0.03609916,-0.00083270,-0.00375
 126,0.03795917,0.00329608,0.00695541,-0.34020625,-0.00237179,-0.004938
 98,0.35791588,-0.29503746,0.00888984,0.10773029,0.00326358,0.00053014,
 -0.00216629,0.30908273,0.00170809,-0.03610349,0.00621607,0.00047425,-0
 .00024095,0.00037785,-0.00602642,0.03795768,0.10407608,0.00320382,-0.0
 9175468,0.02942194,0.00028565,-0.00820140,-0.11372783,-0.00154168,0.09
 299290,-0.14471703,0.12435262,-0.06327928,0.00064212,-0.00164695,0.001
 68160,-0.01287753,0.02057742,-0.01270961,0.15219990,0.13150761,-0.1863
 1782,0.08739713,-0.00159307,0.00235909,-0.00145566,-0.00193641,0.00235
 671,-0.00089131,-0.13402606,0.19479001,-0.06327837,0.08264021,-0.09164
 160,-0.01838837,0.02299849,-0.00822915,0.00736077,-0.01041733,0.005285
 99,0.07065228,-0.08906987,0.09289927,-0.04190907,0.03457840,0.01087667
 ,-0.00069573,-0.00037216,0.00005572,-0.00455363,-0.01652557,-0.0068084
 9,0.00552711,0.00820066,0.00401902,0.52814080,0.03457841,0.01456941,0.
 02298409,-0.00037260,-0.00128391,0.00010500,-0.00004405,-0.00128029,-0
 .00038111,-0.00831373,-0.01137393,-0.00552468,-0.16555398,0.25784608,0
 .01087455,0.02298600,-0.05110317,-0.00842933,-0.01777443,-0.00171360,0
 .00167529,0.00654127,0.00214202,0.00402069,0.00545012,0.00215259,-0.05
 231580,-0.10985241,0.57195593,-0.00455340,-0.00004559,0.00167443,-0.00
 019971,-0.00002642,-0.00031596,0.00013117,-0.00124075,-0.00071308,0.00
 019053,-0.00014560,0.00015724,-0.29518942,0.00894509,0.10771398,0.3092
 2176,-0.01652886,-0.00128296,0.00653809,0.00042031,0.00123584,-0.00020
 473,-0.00124113,-0.00449947,-0.00176723,0.00061272,0.00057417,0.000795
 60,0.00176426,-0.03608990,0.00619599,-0.00607263,0.03794527,-0.0068046
 7,-0.00038172,0.00213965,-0.00005621,0.00046553,-0.00004379,-0.0007128
 4,-0.00176605,-0.00065730,0.00051647,0.00062574,0.00023630,0.10405778,
 0.00318587,-0.09169614,-0.11370690,-0.00151692,0.09293089,0.00552601,-
 0.00831478,0.00402209,0.00046744,0.00096599,0.00003773,0.00019048,0.00
 061230,0.00051656,-0.00143215,-0.00252077,-0.00091965,-0.14476017,0.12
 435474,-0.06328146,-0.01285817,0.02056648,-0.01271754,0.15221993,0.008
 19858,-0.01137748,0.00545492,0.00051400,0.00056265,-0.00038151,-0.0001
 4559,0.00057304,0.00062577,-0.00252107,-0.00294915,-0.00167526,0.13150
 571,-0.18627860,0.08738675,-0.00194389,0.00235805,-0.00089703,-0.13402
 113,0.19475224,0.00401676,-0.00552426,0.00215305,0.00039697,0.00025315
 ,-0.00004466,0.00015698,0.00079491,0.00023608,-0.00091944,-0.00167472,
 -0.00065864,-0.06327567,0.08262509,-0.09162534,0.00735425,-0.01041749,
 0.00528419,0.07066367,-0.08906212,0.09290930,-0.00069437,-0.00037024,-
 0.00843091,-0.00104767,-0.00210769,-0.00021710,-0.00019935,0.00042069,
 -0.00005558,0.00046705,0.00051364,0.00039708,-0.04655990,0.00640610,-0
 .00025792,0.00325723,0.00047885,0.02942390,0.00064663,-0.00158660,-0.0
 1839353,0.04413038,-0.00036656,-0.00127993,-0.01777154,-0.00210699,-0.
 00449274,-0.00045739,-0.00002636,0.00123677,0.00046609,0.00096504,0.00
 056091,0.00025284,0.00640268,-0.03610886,-0.00093330,0.00052979,-0.000
 24101,0.00028459,-0.00164284,0.00235924,0.02300544,-0.00375476,0.03796
 562,0.00005641,0.00010660,-0.00170989,-0.00021678,-0.00045671,0.000522
 97,-0.00031638,-0.00020505,-0.00004362,0.00003729,-0.00038143,-0.00004
 477,0.00339077,0.00685815,-0.34011228,-0.00216396,0.00037669,-0.008193
 80,0.00167860,-0.00145153,-0.00825398,-0.00246595,-0.00484673,0.357835
 37\\0.03318228,0.06989622,0.02211115,0.00003119,0.00006401,-0.00003174
 ,-0.00000433,0.00009386,0.00001532,0.00007505,0.00005040,0.00001326,-0
 .03324715,-0.06989122,-0.02202836,0.00001691,-0.00006851,-0.00003789,-
 0.00004140,-0.00005040,-0.00005586,-0.00001255,-0.00009435,0.00001413\
 \\@


     SCHOPENHAUER'S LAW OF ENTROPY
 IF YOU PUT A SPOONFUL OF WINE IN A BARREL FULL
 OF SEWAGE, YOU GET SEWAGE.
 IF YOU PUT A SPOONFUL OF SEWAGE IN A BARREL FULL
 OF WINE, YOU GET SEWAGE.
 Job cpu time:       0 days  0 hours 53 minutes 32.9 seconds.
 File lengths (MBytes):  RWF=    106 Int=      0 D2E=      0 Chk=      7 Scr=      1
 Normal termination of Gaussian 09 at Sat May 27 08:36:59 2023.
