 Entering Gaussian System, Link 0=g09
 Input=geom.com
 Output=geom.log
 Initial command:
 /software/cinetica/g09d1/g09d01/d01/build-node-6-2-59348/src/main/l1.exe "/scratch/cc/140706/Gau-164466.inp" -scrdir="/scratch/cc/140706/"
 Entering Link 1 = /software/cinetica/g09d1/g09d01/d01/build-node-6-2-59348/src/main/l1.exe PID=    164467.
  
 Copyright (c) 1988,1990,1992,1993,1995,1998,2003,2009,2013,
            Gaussian, Inc.  All Rights Reserved.
  
 This is part of the Gaussian(R) 09 program.  It is based on
 the Gaussian(R) 03 system (copyright 2003, Gaussian, Inc.),
 the Gaussian(R) 98 system (copyright 1998, Gaussian, Inc.),
 the Gaussian(R) 94 system (copyright 1995, Gaussian, Inc.),
 the Gaussian 92(TM) system (copyright 1992, Gaussian, Inc.),
 the Gaussian 90(TM) system (copyright 1990, Gaussian, Inc.),
 the Gaussian 88(TM) system (copyright 1988, Gaussian, Inc.),
 the Gaussian 86(TM) system (copyright 1986, Carnegie Mellon
 University), and the Gaussian 82(TM) system (copyright 1983,
 Carnegie Mellon University). Gaussian is a federally registered
 trademark of Gaussian, Inc.
  
 This software contains proprietary and confidential information,
 including trade secrets, belonging to Gaussian, Inc.
  
 This software is provided under written license and may be
 used, copied, transmitted, or stored only in accord with that
 written license.
  
 The following legend is applicable only to US Government
 contracts under FAR:
  
                    RESTRICTED RIGHTS LEGEND
  
 Use, reproduction and disclosure by the US Government is
 subject to restrictions as set forth in subparagraphs (a)
 and (c) of the Commercial Computer Software - Restricted
 Rights clause in FAR 52.227-19.
  
 Gaussian, Inc.
 340 Quinnipiac St., Bldg. 40, Wallingford CT 06492
  
  
 ---------------------------------------------------------------
 Warning -- This program may not be used in any manner that
 competes with the business of Gaussian, Inc. or will provide
 assistance to any competitor of Gaussian, Inc.  The licensee
 of this program is prohibited from giving any competitor of
 Gaussian, Inc. access to this program.  By using this program,
 the user acknowledges that Gaussian, Inc. is engaged in the
 business of creating and licensing software in the field of
 computational chemistry and represents and warrants to the
 licensee that it is not a competitor of Gaussian, Inc. and that
 it will not use this program in any manner prohibited above.
 ---------------------------------------------------------------
  

 Cite this work as:
 Gaussian 09, Revision D.01,
 M. J. Frisch, G. W. Trucks, H. B. Schlegel, G. E. Scuseria, 
 M. A. Robb, J. R. Cheeseman, G. Scalmani, V. Barone, B. Mennucci, 
 G. A. Petersson, H. Nakatsuji, M. Caricato, X. Li, H. P. Hratchian, 
 A. F. Izmaylov, J. Bloino, G. Zheng, J. L. Sonnenberg, M. Hada, 
 M. Ehara, K. Toyota, R. Fukuda, J. Hasegawa, M. Ishida, T. Nakajima, 
 Y. Honda, O. Kitao, H. Nakai, T. Vreven, J. A. Montgomery, Jr., 
 J. E. Peralta, F. Ogliaro, M. Bearpark, J. J. Heyd, E. Brothers, 
 K. N. Kudin, V. N. Staroverov, T. Keith, R. Kobayashi, J. Normand, 
 K. Raghavachari, A. Rendell, J. C. Burant, S. S. Iyengar, J. Tomasi, 
 M. Cossi, N. Rega, J. M. Millam, M. Klene, J. E. Knox, J. B. Cross, 
 V. Bakken, C. Adamo, J. Jaramillo, R. Gomperts, R. E. Stratmann, 
 O. Yazyev, A. J. Austin, R. Cammi, C. Pomelli, J. W. Ochterski, 
 R. L. Martin, K. Morokuma, V. G. Zakrzewski, G. A. Voth, 
 P. Salvador, J. J. Dannenberg, S. Dapprich, A. D. Daniels, 
 O. Farkas, J. B. Foresman, J. V. Ortiz, J. Cioslowski, 
 and D. J. Fox, Gaussian, Inc., Wallingford CT, 2013.
 
 ******************************************
 Gaussian 09:  EM64L-G09RevD.01 24-Apr-2013
                 3-Jun-2023 
 ******************************************
 %mem=400MW
 %chk=tmp
 %NProcShared= 32
 Will use up to   32 processors via shared memory.
 ----------------------------------------------------------------------
 # uwb97xd/aug-cc-pvtz opt=(noeig,intern,maxcyc=50) # int=ultrafine nos
 ym iop(7/33=1) guess=(mix,always)
 ----------------------------------------------------------------------
 1/6=50,10=7,11=1,14=-1,18=40,26=4,38=1/1,3;
 2/12=2,15=1,17=6,18=5,29=3,40=1/2;
 3/5=16,6=1,7=10,11=2,16=1,25=1,30=1,71=1,74=-58,75=-5,116=2/1,2,3;
 4/13=-1/1;
 5/5=2,38=5/2;
 6/7=2,8=2,9=2,10=2,28=1/1;
 7/29=1,30=1,33=1/1,2,3,16;
 1/6=50,10=7,11=1,14=-1,18=40,26=4/3(2);
 2/15=1,29=3/2;
 99//99;
 2/15=1,29=3/2;
 3/5=16,6=1,7=10,11=2,16=1,25=1,30=1,71=1,74=-58,75=-5,116=2/1,2,3;
 4/13=-1/1;
 5/5=2,38=5/2;
 7/30=1,33=1/1,2,3,16;
 1/6=50,11=1,14=-1,18=40,26=4/3(-5);
 2/15=1,29=3/2;
 6/7=2,8=2,9=2,10=2,19=2,28=1/1;
 99/9=1/99;
 ------
 geom 0
 ------
 Symbolic Z-matrix:
 Charge =  0 Multiplicity = 1
 C1
 H2                   C1   R1
 H3                   C1   R2       H2   A2
 H4                   C1   R3       H2   A3       H3   D3       0
 H21                  1    rts      2    aabs1    3    babs1    0
       Variables:
  BABS1               106.5501                   
  AABS1                99.8829                   
       Constants:
  R3                    1.0782                   
  A2                  119.9721                   
  A3                  120.0207                   
  D3                  179.8076                   
  R2                    1.0782                   
  R1                    1.0782                   
  RTS                   2.                       
 

 GradGradGradGradGradGradGradGradGradGradGradGradGradGradGradGradGradGrad
 Berny optimization.
 Initialization pass.
                       ----------------------------
                       !    Initial Parameters    !
                       ! (Angstroms and Degrees)  !
 ----------------------                            ----------------------
 !      Name          Value   Derivative information (Atomic Units)     !
 ------------------------------------------------------------------------
 !      BABS1      106.5501   estimate D2E/DX2                          !
 !      AABS1       99.8829   estimate D2E/DX2                          !
 !       R3          1.0782   Frozen                                    !
 !       A2        119.9721   Frozen                                    !
 !       A3        120.0207   Frozen                                    !
 !       D3        179.8076   Frozen                                    !
 !       R2          1.0782   Frozen                                    !
 !       R1          1.0782   Frozen                                    !
 !       RTS         2.0      Frozen                                    !
 ------------------------------------------------------------------------
 Trust Radius=3.00D-01 FncErr=1.00D-07 GrdErr=1.00D-06
 Number of steps in this run=     50 maximum allowed number of steps=    100.
 GradGradGradGradGradGradGradGradGradGradGradGradGradGradGradGradGradGrad

 ---------------------------------------------------------------------------------------------------
                            Z-MATRIX (ANGSTROMS AND DEGREES)
   CD    Cent   Atom    N1       Length/X        N2       Alpha/Y        N3        Beta/Z          J
 ---------------------------------------------------------------------------------------------------
      1      1  C 
      2      2  H        1   1.078200(     1)
      3      3  H        1   1.078200(     2)      2  119.972(     5)
      4      4  H        1   1.078200(     3)      2  120.021(     6)      3  179.808(     8)      0
      5      5  H        1   2.000000(     4)      2   99.883(     7)      3  106.550(     9)      0
 ---------------------------------------------------------------------------------------------------
                         Z-Matrix orientation:                         
 ---------------------------------------------------------------------
 Center     Atomic      Atomic             Coordinates (Angstroms)
 Number     Number       Type             X           Y           Z
 ---------------------------------------------------------------------
      1          6           0        0.000000    0.000000    0.000000
      2          1           0        0.000000    0.000000    1.078200
      3          1           0        0.934011    0.000000   -0.538645
      4          1           0       -0.933548   -0.003135   -0.539437
      5          1           0       -0.561253   -1.888693   -0.343270
 ---------------------------------------------------------------------
                    Distance matrix (angstroms):
                    1          2          3          4          5
     1  C    0.000000
     2  H    1.078200   0.000000
     3  H    1.078200   1.867235   0.000000
     4  H    1.078200   1.867692   1.867562   0.000000
     5  H    2.000000   2.429556   2.416846   1.931946   0.000000
 Symmetry turned off by external request.
 Stoichiometry    CH4
 Framework group  C1[X(CH4)]
 Deg. of freedom     9
 Full point group                 C1      NOp   1
 Rotational constants (GHZ):    157.7795313     91.3048382     86.4510829
 Standard basis: Aug-CC-pVTZ (5D, 7F)
   138 basis functions,   180 primitive gaussians,   155 cartesian basis functions
     5 alpha electrons        5 beta electrons
       nuclear repulsion energy        11.9826319747 Hartrees.
 NAtoms=    5 NActive=    5 NUniq=    5 SFac= 1.00D+00 NAtFMM=   60 NAOKFM=F Big=F
 Integral buffers will be    131072 words long.
 Raffenetti 2 integral format.
 Two-electron integral symmetry is turned off.
 Nuclear repulsion after empirical dispersion term =       11.9819043359 Hartrees.
 One-electron integrals computed using PRISM.
 NBasis=   138 RedAO= T EigKep=  8.52D-05  NBF=   138
 NBsUse=   138 1.00D-06 EigRej= -1.00D+00 NBFU=   138
 ExpMin= 2.53D-02 ExpMax= 8.24D+03 ExpMxC= 2.81D+02 IAcc=3 IRadAn=         5 AccDes= 0.00D+00
 Harris functional with IExCor= 4639 and IRadAn=       5 diagonalized for initial guess.
 HarFok:  IExCor= 4639 AccDes= 0.00D+00 IRadAn=         5 IDoV= 1 UseB2=F ITyADJ=14
 ICtDFT=  3500011 ScaDFX=  1.000000  1.000000  1.000000  1.000000
 FoFCou: FMM=F IPFlag=           0 FMFlag=      100000 FMFlg1=           0
         NFxFlg=           0 DoJE=T BraDBF=F KetDBF=T FulRan=T
         wScrn=  0.000000 ICntrl=     500 IOpCl=  0 I1Cent=   200000004 NGrid=           0
         NMat0=    1 NMatS0=      1 NMatT0=    0 NMatD0=    1 NMtDS0=    0 NMtDT0=    0
 Symmetry not used in FoFCou.
 Mixing orbitals, IMix= 1 IMixAn=  0 NRI=1 NE=    5 Coef=  7.07106781D-01  7.07106781D-01
 Mixing orbitals, IMix= 1 IMixAn=  0 NRI=1 NE=    5 Coef= -7.07106781D-01  7.07106781D-01
 Initial guess <Sx>= 0.0000 <Sy>= 0.0000 <Sz>= 0.0000 <S**2>= 1.0000 S= 0.6180
 Keep R1 and R2 ints in memory in canonical form, NReq=186090023.
 Requested convergence on RMS density matrix=1.00D-08 within 128 cycles.
 Requested convergence on MAX density matrix=1.00D-06.
 Requested convergence on             energy=1.00D-06.
 No special actions if energy rises.
 SCF Done:  E(UwB97XD) =  -40.3762305784     A.U. after   16 cycles
            NFock= 16  Conv=0.35D-08     -V/T= 2.0122
 <Sx>= 0.0000 <Sy>= 0.0000 <Sz>= 0.0000 <S**2>= 0.1285 S= 0.1152
 <L.S>=  0.00000000000    
 Annihilation of the first spin contaminant:
 S**2 before annihilation     0.1285,   after     0.0003

 **********************************************************************

            Population analysis using the SCF density.

 **********************************************************************

 Alpha  occ. eigenvalues --  -10.33417  -0.79736  -0.52567  -0.52541  -0.33903
 Alpha virt. eigenvalues --   -0.01200   0.03916   0.04993   0.05235   0.08107
 Alpha virt. eigenvalues --    0.11183   0.12560   0.12579   0.13860   0.18694
 Alpha virt. eigenvalues --    0.19295   0.21327   0.21440   0.28968   0.30222
 Alpha virt. eigenvalues --    0.31762   0.31894   0.32471   0.32872   0.33670
 Alpha virt. eigenvalues --    0.33936   0.37245   0.37627   0.39013   0.39030
 Alpha virt. eigenvalues --    0.39979   0.40524   0.45018   0.45553   0.59795
 Alpha virt. eigenvalues --    0.60146   0.66370   0.68838   0.71025   0.73255
 Alpha virt. eigenvalues --    0.73322   0.78242   0.79696   0.80081   0.80688
 Alpha virt. eigenvalues --    0.85156   0.85967   0.87529   0.87921   0.90694
 Alpha virt. eigenvalues --    0.94330   0.95101   0.96206   0.97058   0.99233
 Alpha virt. eigenvalues --    1.04315   1.04869   1.05772   1.09024   1.11249
 Alpha virt. eigenvalues --    1.11347   1.15998   1.17695   1.19540   1.27397
 Alpha virt. eigenvalues --    1.30950   1.39242   1.41027   1.44735   1.47456
 Alpha virt. eigenvalues --    1.49768   1.50971   1.51240   1.56631   1.56799
 Alpha virt. eigenvalues --    1.60949   1.64884   1.72698   1.78448   1.79118
 Alpha virt. eigenvalues --    1.94300   1.97390   2.00018   2.05234   2.05486
 Alpha virt. eigenvalues --    2.14233   2.70981   2.75309   2.85369   2.89325
 Alpha virt. eigenvalues --    2.98613   3.05531   3.23603   3.31663   3.34659
 Alpha virt. eigenvalues --    3.37645   3.39188   3.39923   3.41552   3.44580
 Alpha virt. eigenvalues --    3.45278   3.55321   3.66803   3.70186   3.70661
 Alpha virt. eigenvalues --    3.73506   3.80946   3.81350   3.92213   3.94476
 Alpha virt. eigenvalues --    3.98957   4.01735   4.09858   4.11298   4.12708
 Alpha virt. eigenvalues --    4.15441   4.16396   4.32446   4.47882   4.55833
 Alpha virt. eigenvalues --    4.59599   4.61488   4.62087   4.77288   4.79640
 Alpha virt. eigenvalues --    4.84072   5.03718   5.04098   5.11836   5.12749
 Alpha virt. eigenvalues --    5.17730   5.25075   5.43360   6.08325   6.20882
 Alpha virt. eigenvalues --    6.22459   6.39693  16.23309
  Beta  occ. eigenvalues --  -10.33047  -0.78155  -0.52251  -0.52132  -0.34967
  Beta virt. eigenvalues --   -0.00625   0.04134   0.05039   0.05203   0.06987
  Beta virt. eigenvalues --    0.11869   0.12649   0.12654   0.14075   0.18832
  Beta virt. eigenvalues --    0.19373   0.21479   0.21547   0.29142   0.30312
  Beta virt. eigenvalues --    0.31829   0.31906   0.32964   0.32984   0.33769
  Beta virt. eigenvalues --    0.33951   0.37304   0.37628   0.39005   0.39012
  Beta virt. eigenvalues --    0.40043   0.40622   0.45218   0.45613   0.58870
  Beta virt. eigenvalues --    0.60386   0.66430   0.69579   0.71002   0.73402
  Beta virt. eigenvalues --    0.73445   0.78508   0.79706   0.80444   0.80663
  Beta virt. eigenvalues --    0.85225   0.85992   0.87276   0.87636   0.90733
  Beta virt. eigenvalues --    0.94399   0.95260   0.96224   0.96504   0.99060
  Beta virt. eigenvalues --    1.04270   1.04876   1.05832   1.09063   1.11255
  Beta virt. eigenvalues --    1.11342   1.16009   1.17863   1.19622   1.27276
  Beta virt. eigenvalues --    1.30900   1.39412   1.40948   1.44782   1.47485
  Beta virt. eigenvalues --    1.49899   1.51084   1.51403   1.56890   1.57074
  Beta virt. eigenvalues --    1.61547   1.64690   1.73188   1.78652   1.79333
  Beta virt. eigenvalues --    1.94895   1.97322   2.00758   2.05373   2.05639
  Beta virt. eigenvalues --    2.14521   2.68579   2.76918   2.85868   2.89579
  Beta virt. eigenvalues --    2.99100   3.06316   3.23785   3.32677   3.35687
  Beta virt. eigenvalues --    3.38733   3.40332   3.40406   3.41664   3.45673
  Beta virt. eigenvalues --    3.45965   3.55923   3.66632   3.70107   3.70446
  Beta virt. eigenvalues --    3.73623   3.77744   3.77797   3.90197   3.91857
  Beta virt. eigenvalues --    3.98834   4.00359   4.06307   4.08982   4.11905
  Beta virt. eigenvalues --    4.15335   4.15993   4.31033   4.46731   4.55673
  Beta virt. eigenvalues --    4.59631   4.61431   4.61951   4.75705   4.79443
  Beta virt. eigenvalues --    4.84340   5.03857   5.04209   5.12945   5.13507
  Beta virt. eigenvalues --    5.17915   5.25342   5.43710   6.08683   6.21068
  Beta virt. eigenvalues --    6.22590   6.40006  16.24130
          Condensed to atoms (all electrons):
               1          2          3          4          5
     1  C    5.806138   0.349783   0.349028   0.319404   0.219388
     2  H    0.349783   0.274035   0.008590   0.009222   0.004745
     3  H    0.349028   0.008590   0.273692   0.009345   0.004849
     4  H    0.319404   0.009222   0.009345   0.268123  -0.008585
     5  H    0.219388   0.004745   0.004849  -0.008585   0.846469
          Atomic-Atomic Spin Densities.
               1          2          3          4          5
     1  C    0.368176   0.005110   0.005027  -0.004062   0.001559
     2  H    0.005110  -0.010195   0.000568  -0.000007   0.003086
     3  H    0.005027   0.000568  -0.010231  -0.000038   0.003273
     4  H   -0.004062  -0.000007  -0.000038  -0.018375   0.015226
     5  H    0.001559   0.003086   0.003273   0.015226  -0.388860
 Mulliken charges and spin densities:
               1          2
     1  C   -1.043742   0.375810
     2  H    0.353624  -0.001438
     3  H    0.354495  -0.001402
     4  H    0.402489  -0.007255
     5  H   -0.066866  -0.365716
 Sum of Mulliken charges =  -0.00000  -0.00000
 Mulliken charges and spin densities with hydrogens summed into heavy atoms:
               1          2
     1  C   -0.000000  -0.000000
 Electronic spatial extent (au):  <R**2>=             48.2034
 Charge=             -0.0000 electrons
 Dipole moment (field-independent basis, Debye):
    X=              0.2149    Y=              1.0450    Z=              0.1317  Tot=              1.0749
 Quadrupole moment (field-independent basis, Debye-Ang):
   XX=             -8.5699   YY=            -11.7204   ZZ=             -8.5807
   XY=             -0.0395   XZ=              0.0104   YZ=             -0.0259
 Traceless Quadrupole moment (field-independent basis, Debye-Ang):
   XX=              1.0538   YY=             -2.0967   ZZ=              1.0430
   XY=             -0.0395   XZ=              0.0104   YZ=             -0.0259
 Octapole moment (field-independent basis, Debye-Ang**2):
  XXX=              2.7600  YYY=             11.6736  ZZZ=              2.7561  XYY=              1.0369
  XXY=              3.3683  XXZ=             -0.5053  XZZ=              0.9171  YZZ=              3.4430
  YYZ=              0.6341  XYZ=             -0.0664
 Hexadecapole moment (field-independent basis, Debye-Ang**3):
 XXXX=            -19.4432 YYYY=            -49.8959 ZZZZ=            -17.7316 XXXY=             -4.9211
 XXXZ=             -0.8240 YYYX=             -4.4355 YYYZ=             -2.7143 ZZZX=             -0.8552
 ZZZY=             -3.0735 XXYY=            -12.0437 XXZZ=             -6.1817 YYZZ=            -11.8941
 XXYZ=             -0.9406 YYXZ=             -0.1450 ZZXY=             -1.6364
 N-N= 1.198190433587D+01 E-N=-1.165847402615D+02  KE= 3.989066734497D+01
                          Isotropic Fermi Contact Couplings
        Atom                 a.u.       MegaHertz       Gauss      10(-4) cm-1
     1  C(13)             -0.01213      -6.81553      -2.43195      -2.27341
     2  H(1)              -0.00538     -12.02283      -4.29004      -4.01038
     3  H(1)              -0.00542     -12.10334      -4.31877      -4.03724
     4  H(1)              -0.00801     -17.91029      -6.39084      -5.97423
     5  H(1)              -0.10892    -243.42175     -86.85893     -81.19676
 --------------------------------------------------------
       Center         ----  Spin Dipole Couplings  ----
                      3XX-RR        3YY-RR        3ZZ-RR
 --------------------------------------------------------
     1   Atom       -0.208692      0.413120     -0.204428
     2   Atom       -0.025407     -0.001362      0.026769
     3   Atom        0.012196     -0.001428     -0.010769
     4   Atom        0.016162     -0.007401     -0.008761
     5   Atom       -0.007444      0.017179     -0.009735
 --------------------------------------------------------
                        XY            XZ            YZ
 --------------------------------------------------------
     1   Atom       -0.008352     -0.003939     -0.004988
     2   Atom       -0.001636     -0.001782     -0.004066
     3   Atom       -0.004385     -0.023526      0.000550
     4   Atom        0.001809      0.021693      0.000896
     5   Atom        0.009937      0.002241      0.006091
 --------------------------------------------------------


 ---------------------------------------------------------------------------------
              Anisotropic Spin Dipole Couplings in Principal Axis System
 ---------------------------------------------------------------------------------

       Atom             a.u.   MegaHertz   Gauss  10(-4) cm-1        Axes

              Baa    -0.2112   -28.340   -10.112    -9.453  0.8590  0.0156  0.5118
     1 C(13)  Bbb    -0.2021   -27.117    -9.676    -9.045 -0.5119  0.0000  0.8591
              Bcc     0.4133    55.457    19.788    18.499 -0.0134  0.9999 -0.0080
 
              Baa    -0.0256   -13.659    -4.874    -4.556  0.9965  0.0739  0.0397
     2 H(1)   Bbb    -0.0018    -0.955    -0.341    -0.319 -0.0787  0.9876  0.1357
              Bcc     0.0274    14.614     5.215     4.875 -0.0291 -0.1384  0.9900
 
              Baa    -0.0256   -13.664    -4.876    -4.558  0.5332  0.0776  0.8424
     3 H(1)   Bbb    -0.0018    -0.982    -0.351    -0.328  0.0758  0.9874 -0.1389
              Bcc     0.0275    14.646     5.226     4.885  0.8426 -0.1379 -0.5206
 
              Baa    -0.0213   -11.374    -4.059    -3.794 -0.5012  0.0094  0.8653
     4 H(1)   Bbb    -0.0075    -4.008    -1.430    -1.337 -0.0433  0.9984 -0.0360
              Bcc     0.0288    15.382     5.489     5.131  0.8642  0.0555  0.5000
 
              Baa    -0.0111    -5.926    -2.114    -1.977 -0.5089 -0.0066  0.8608
     5 H(1)   Bbb    -0.0109    -5.821    -2.077    -1.942  0.7964 -0.3832  0.4679
              Bcc     0.0220    11.746     4.191     3.918  0.3268  0.9236  0.2002
 

 ---------------------------------------------------------------------------------

 DipInt: DoE/N= T T RetVal/Mat= T F Init=T NMatP=  1 IDeriv=0 Min/MaxMlt=  1  1
 Entering OneElI...
 Multipole integrals L=1 to 1 MinM= 0 MaxM= 0.
 Requested accuracy = 0.1000D-12
 PrsmSu:  NPrtUS=   1 ThrOK=F IAlg=1 NPAlg=1 LenDen=           0.
 Prism:   IPart=     0 DynPar=F LinDyn=F Incr=          12.
 PRISM was handed   419323220 working-precision words and  1275 shell-pairs
 IPart=  0 NShTot=        1275 NBatch=          37 AvBLen=        34.5
 PrSmSu:  NxtVal=             13.
 Entering OneElI...
 Calculate overlap and kinetic energy integrals
    NBasis = 155  MinDer = 1  MaxDer = 1
 Requested accuracy = 0.1000D-12
 PrsmSu:  NPrtUS=  32 ThrOK=T IAlg=1 NPAlg=1 LenDen=           0.
 Prism:   IPart=     0 DynPar=F LinDyn=F Incr=           1.
 PRISM was handed    13082528 working-precision words and  1275 shell-pairs
 PRISM was handed    13082528 working-precision words and  1275 shell-pairs
 PRISM was handed    13082528 working-precision words and  1275 shell-pairs
 PRISM was handed    13082528 working-precision words and  1275 shell-pairs
 PRISM was handed    13082528 working-precision words and  1275 shell-pairs
 PRISM was handed    13082528 working-precision words and  1275 shell-pairs
 PRISM was handed    13082528 working-precision words and  1275 shell-pairs
 PRISM was handed    13082528 working-precision words and  1275 shell-pairs
 PRISM was handed    13082528 working-precision words and  1275 shell-pairs
 PRISM was handed    13082528 working-precision words and  1275 shell-pairs
 PRISM was handed    13082528 working-precision words and  1275 shell-pairs
 PRISM was handed    13082528 working-precision words and  1275 shell-pairs
 PRISM was handed    13082528 working-precision words and  1275 shell-pairs
 PRISM was handed    13082528 working-precision words and  1275 shell-pairs
 PRISM was handed    13082528 working-precision words and  1275 shell-pairs
 PRISM was handed    13082528 working-precision words and  1275 shell-pairs
 PRISM was handed    13082528 working-precision words and  1275 shell-pairs
 PRISM was handed    13082528 working-precision words and  1275 shell-pairs
 PRISM was handed    13082528 working-precision words and  1275 shell-pairs
 PRISM was handed    13082528 working-precision words and  1275 shell-pairs
 PRISM was handed    13082528 working-precision words and  1275 shell-pairs
 PRISM was handed    13082528 working-precision words and  1275 shell-pairs
 PRISM was handed    13082528 working-precision words and  1275 shell-pairs
 PRISM was handed    13082528 working-precision words and  1275 shell-pairs
 PRISM was handed    13082528 working-precision words and  1275 shell-pairs
 PRISM was handed    13082528 working-precision words and  1275 shell-pairs
 PRISM was handed    13082528 working-precision words and  1275 shell-pairs
 PRISM was handed    13082528 working-precision words and  1275 shell-pairs
 PRISM was handed    13082528 working-precision words and  1275 shell-pairs
 PRISM was handed    13082528 working-precision words and  1275 shell-pairs
 PRISM was handed    13082528 working-precision words and  1275 shell-pairs
 PRISM was handed    13082528 working-precision words and  1275 shell-pairs
 IPart=  0 NShTot=          68 NBatch=          39 AvBLen=         1.7
 IPart= 22 NShTot=          34 NBatch=          11 AvBLen=         3.1
 IPart= 27 NShTot=          32 NBatch=          11 AvBLen=         2.9
 IPart= 25 NShTot=          32 NBatch=          11 AvBLen=         2.9
 IPart= 30 NShTot=          29 NBatch=           9 AvBLen=         3.2
 IPart= 28 NShTot=          31 NBatch=          11 AvBLen=         2.8
 IPart= 29 NShTot=          31 NBatch=          11 AvBLen=         2.8
 IPart= 31 NShTot=          29 NBatch=           9 AvBLen=         3.2
 IPart= 19 NShTot=          35 NBatch=          12 AvBLen=         2.9
 IPart= 10 NShTot=          45 NBatch=          20 AvBLen=         2.3
 IPart= 26 NShTot=          32 NBatch=          11 AvBLen=         2.9
 IPart= 17 NShTot=          35 NBatch=          12 AvBLen=         2.9
 IPart=  7 NShTot=          46 NBatch=          21 AvBLen=         2.2
 IPart= 16 NShTot=          36 NBatch=          13 AvBLen=         2.8
 IPart=  8 NShTot=          45 NBatch=          20 AvBLen=         2.3
 IPart=  3 NShTot=          50 NBatch=          23 AvBLen=         2.2
 IPart= 13 NShTot=          40 NBatch=          17 AvBLen=         2.4
 IPart= 14 NShTot=          40 NBatch=          17 AvBLen=         2.4
 IPart=  6 NShTot=          46 NBatch=          21 AvBLen=         2.2
 IPart= 24 NShTot=          32 NBatch=          11 AvBLen=         2.9
 IPart=  2 NShTot=          54 NBatch=          27 AvBLen=         2.0
 IPart=  9 NShTot=          45 NBatch=          20 AvBLen=         2.3
 IPart= 23 NShTot=          34 NBatch=          11 AvBLen=         3.1
 IPart=  4 NShTot=          48 NBatch=          21 AvBLen=         2.3
 IPart= 18 NShTot=          35 NBatch=          12 AvBLen=         2.9
 IPart=  1 NShTot=          58 NBatch=          30 AvBLen=         1.9
 IPart= 12 NShTot=          40 NBatch=          17 AvBLen=         2.4
 IPart= 20 NShTot=          35 NBatch=          12 AvBLen=         2.9
 IPart= 15 NShTot=          36 NBatch=          13 AvBLen=         2.8
 IPart= 21 NShTot=          35 NBatch=          12 AvBLen=         2.9
 IPart= 11 NShTot=          41 NBatch=          17 AvBLen=         2.4
 IPart=  5 NShTot=          46 NBatch=          21 AvBLen=         2.2
 PrSmSu:  NxtVal=             33.
 Entering OneElI...
 Calculate potential energy integrals
    NBasis = 155  MinDer = 1  MaxDer = 1
 Requested accuracy = 0.1000D-12
 PrsmSu:  NPrtUS=  32 ThrOK=T IAlg=1 NPAlg=1 LenDen=           0.
 Prism:   IPart=     0 DynPar=F LinDyn=F Incr=           1.
 PRISM was handed    13083550 working-precision words and  1275 shell-pairs
 PRISM was handed    13083550 working-precision words and  1275 shell-pairs
 PRISM was handed    13083550 working-precision words and  1275 shell-pairs
 PRISM was handed    13083550 working-precision words and  1275 shell-pairs
 PRISM was handed    13083550 working-precision words and  1275 shell-pairs
 PRISM was handed    13083550 working-precision words and  1275 shell-pairs
 PRISM was handed    13083550 working-precision words and  1275 shell-pairs
 PRISM was handed    13083550 working-precision words and  1275 shell-pairs
 PRISM was handed    13083550 working-precision words and  1275 shell-pairs
 PRISM was handed    13083550 working-precision words and  1275 shell-pairs
 PRISM was handed    13083550 working-precision words and  1275 shell-pairs
 PRISM was handed    13083550 working-precision words and  1275 shell-pairs
 PRISM was handed    13083550 working-precision words and  1275 shell-pairs
 PRISM was handed    13083550 working-precision words and  1275 shell-pairs
 PRISM was handed    13083550 working-precision words and  1275 shell-pairs
 PRISM was handed    13083550 working-precision words and  1275 shell-pairs
 PRISM was handed    13083550 working-precision words and  1275 shell-pairs
 PRISM was handed    13083550 working-precision words and  1275 shell-pairs
 PRISM was handed    13083550 working-precision words and  1275 shell-pairs
 PRISM was handed    13083550 working-precision words and  1275 shell-pairs
 PRISM was handed    13083550 working-precision words and  1275 shell-pairs
 PRISM was handed    13083550 working-precision words and  1275 shell-pairs
 PRISM was handed    13083550 working-precision words and  1275 shell-pairs
 PRISM was handed    13083550 working-precision words and  1275 shell-pairs
 PRISM was handed    13083550 working-precision words and  1275 shell-pairs
 PRISM was handed    13083550 working-precision words and  1275 shell-pairs
 PRISM was handed    13083550 working-precision words and  1275 shell-pairs
 PRISM was handed    13083550 working-precision words and  1275 shell-pairs
 PRISM was handed    13083550 working-precision words and  1275 shell-pairs
 PRISM was handed    13083550 working-precision words and  1275 shell-pairs
 PRISM was handed    13083550 working-precision words and  1275 shell-pairs
 PRISM was handed    13083550 working-precision words and  1275 shell-pairs
 IPart= 15 NShTot=         180 NBatch=          36 AvBLen=         5.0
 IPart= 11 NShTot=         205 NBatch=          41 AvBLen=         5.0
 IPart=  5 NShTot=         235 NBatch=          47 AvBLen=         5.0
 IPart= 13 NShTot=         200 NBatch=          40 AvBLen=         5.0
 IPart= 21 NShTot=         175 NBatch=          35 AvBLen=         5.0
 IPart= 30 NShTot=         145 NBatch=          29 AvBLen=         5.0
 IPart= 20 NShTot=         175 NBatch=          35 AvBLen=         5.0
 IPart= 28 NShTot=         155 NBatch=          31 AvBLen=         5.0
 IPart=  9 NShTot=         220 NBatch=          44 AvBLen=         5.0
 IPart= 22 NShTot=         170 NBatch=          34 AvBLen=         5.0
 IPart= 23 NShTot=         170 NBatch=          34 AvBLen=         5.0
 IPart= 31 NShTot=         145 NBatch=          29 AvBLen=         5.0
 IPart= 29 NShTot=         155 NBatch=          31 AvBLen=         5.0
 IPart=  7 NShTot=         230 NBatch=          46 AvBLen=         5.0
 IPart= 27 NShTot=         160 NBatch=          32 AvBLen=         5.0
 IPart= 26 NShTot=         160 NBatch=          32 AvBLen=         5.0
 IPart= 19 NShTot=         175 NBatch=          35 AvBLen=         5.0
 IPart=  1 NShTot=         295 NBatch=          59 AvBLen=         5.0
 IPart= 25 NShTot=         160 NBatch=          32 AvBLen=         5.0
 IPart= 17 NShTot=         175 NBatch=          35 AvBLen=         5.0
 IPart=  3 NShTot=         250 NBatch=          50 AvBLen=         5.0
 IPart= 24 NShTot=         160 NBatch=          32 AvBLen=         5.0
 IPart=  8 NShTot=         225 NBatch=          45 AvBLen=         5.0
 IPart= 18 NShTot=         175 NBatch=          35 AvBLen=         5.0
 IPart= 16 NShTot=         175 NBatch=          35 AvBLen=         5.0
 IPart=  6 NShTot=         230 NBatch=          46 AvBLen=         5.0
 IPart= 14 NShTot=         200 NBatch=          40 AvBLen=         5.0
 IPart= 12 NShTot=         200 NBatch=          40 AvBLen=         5.0
 IPart=  2 NShTot=         270 NBatch=          54 AvBLen=         5.0
 IPart=  4 NShTot=         245 NBatch=          49 AvBLen=         5.0
 IPart= 10 NShTot=         220 NBatch=          44 AvBLen=         5.0
 IPart=  0 NShTot=         340 NBatch=          68 AvBLen=         5.0
 PrSmSu:  NxtVal=             33.
 l701 out
 I=    0 X=   8.455261639193D-02 Y=   4.111165618146D-01 Z=   5.181111392501D-02
 I=    1 X=   2.893720931268D-01 Y=   1.056346916281D+00 Z=   1.763883593672D-01
 I=    2 X=   3.590510982121D-02 Y=   4.956190578854D-02 Z=   2.429584853586D+00
 I=    3 X=   2.123631941697D+00 Y=   4.936287357305D-02 Z=  -1.179589124503D+00
 I=    4 X=  -2.011738282543D+00 Y=  -1.019278149452D-01 Z=  -1.159461888572D+00
 I=    5 X=  -4.371708621014D-01 Y=  -1.053343880697D+00 Z=  -2.669221998781D-01
 ICntrl=      2127.
 Calling FoFJK, ICntrl=      2127 FMM=F ISym2X=0 I1Cent= 0 IOpClX= 1 NMat=1 NMatS=1 NMatT=0.
 FoFJK:  IHMeth= 1 ICntrl=    2127 DoSepK=T KAlg= 0 I1Cent=   0 FoldK=F
 IRaf=         1 NMat=   1 IRICut=       1 DoRegI=T DoRafI=F ISym2E= 0.
 FoFCou: FMM=F IPFlag=           0 FMFlag=      100000 FMFlg1=         800
         NFxFlg=           0 DoJE=F BraDBF=F KetDBF=F FulRan=T
         wScrn=  0.000000 ICntrl=    2527 IOpCl=  0 I1Cent=           0 NGrid=           0
         NMat0=    1 NMatS0=      1 NMatT0=    0 NMatD0=    1 NMtDS0=    0 NMtDT0=    0
 Symmetry not used in FoFCou.
 FoFCou:  KetSym=F NOpSet=  1 NOpAb=1 NOp=  1.
 FoFCou:  CnvScl= 1.00D+00 Thresh= 1.00D-10 IAcrcy=      10.
 PrismS was handed   419298092 working-precision words and  1275 shell-pairs
 FoFCou: LinMIO=F DoNuc=F BraDBF=F KetDBF=F HaveP=T PDBF=F HaveZ=T HaveW=F
         NIJTC =      10 NIJTAt=       0 NIJTCD=       0 NIJTT =      10
         IJTBeg=       1 IJTEnd=      10 KLTBeg=       1 KLTEnd=      10
         IPTBeg=       1 IPTEnd=      10 IPTBCv=       1 IPTECv=      10
         IZTBeg=       1 IZTEnd=      10 IZTBCv=       1 IZTECv=      10
         IWTBeg=      11 IWTEnd=      10 IWTBCv=      11 IWTECv=      10
         INTBeg=       1 INTEnd=       0 IFTBCv=       1 IFTECv=      10
 NCel replicated for PrismC:     1
 CoulSu:  IncDef=  1024 NBBP=         813450 NTPThr=   100 NPartT=   32 Incr=         254 LDynOK=F.
 CoulSu:  NPrtUS=  32 ThrOK=T IAlg=1 NPAlg=1 LenDen=           0 LWGrdD=           0 DoCopy=F.
 Enter PrismC: JobTyp=21 DoJE=F Cont=F.
 Enter PrismC: JobTyp=21 DoJE=F Cont=F.
 Enter PrismC: JobTyp=21 DoJE=F Cont=F.
 Enter PrismC: JobTyp=21 DoJE=F Cont=F.
 Enter PrismC: JobTyp=21 DoJE=F Cont=F.
 Enter PrismC: JobTyp=21 DoJE=F Cont=F.
 Enter PrismC: JobTyp=21 DoJE=F Cont=F.
 Enter PrismC: JobTyp=21 DoJE=F Cont=F.
 Enter PrismC: JobTyp=21 DoJE=F Cont=F.
 Enter PrismC: JobTyp=21 DoJE=F Cont=F.
 Enter PrismC: JobTyp=21 DoJE=F Cont=F.
 Enter PrismC: JobTyp=21 DoJE=F Cont=F.
 Enter PrismC: JobTyp=21 DoJE=F Cont=F.
 Enter PrismC: JobTyp=21 DoJE=F Cont=F.
 Enter PrismC: JobTyp=21 DoJE=F Cont=F.
 PrismC:  IPart=     0 DynPar=T LinDyn=F Incr=         254 UseFst=F UseS4=T IGathr=2.
 PrismC was handed    13082692 working-precision words and  1275 shell-pairs
 Enter PrismC: JobTyp=21 DoJE=F Cont=F.
 Enter PrismC: JobTyp=21 DoJE=F Cont=F.
 Enter PrismC: JobTyp=21 DoJE=F Cont=F.
 Enter PrismC: JobTyp=21 DoJE=F Cont=F.
 Enter PrismC: JobTyp=21 DoJE=F Cont=F.
 Enter PrismC: JobTyp=21 DoJE=F Cont=F.
 Enter PrismC: JobTyp=21 DoJE=F Cont=F.
 PrismC was handed    13082692 working-precision words and  1275 shell-pairs
 Enter PrismC: JobTyp=21 DoJE=F Cont=F.
 PrismC was handed    13082692 working-precision words and  1275 shell-pairs
 Enter PrismC: JobTyp=21 DoJE=F Cont=F.
 PrismC was handed    13082692 working-precision words and  1275 shell-pairs
 Enter PrismC: JobTyp=21 DoJE=F Cont=F.
 PrismC was handed    13082692 working-precision words and  1275 shell-pairs
 Enter PrismC: JobTyp=21 DoJE=F Cont=F.
 PrismC was handed    13082692 working-precision words and  1275 shell-pairs
 Enter PrismC: JobTyp=21 DoJE=F Cont=F.
 PrismC was handed    13082692 working-precision words and  1275 shell-pairs
 Enter PrismC: JobTyp=21 DoJE=F Cont=F.
 PrismC was handed    13082692 working-precision words and  1275 shell-pairs
 Enter PrismC: JobTyp=21 DoJE=F Cont=F.
 PrismC was handed    13082692 working-precision words and  1275 shell-pairs
 Enter PrismC: JobTyp=21 DoJE=F Cont=F.
 PrismC was handed    13082692 working-precision words and  1275 shell-pairs
 Enter PrismC: JobTyp=21 DoJE=F Cont=F.
 PrismC was handed    13082692 working-precision words and  1275 shell-pairs
 PrismC was handed    13082692 working-precision words and  1275 shell-pairs
 PrismC was handed    13082692 working-precision words and  1275 shell-pairs
 PrismC was handed    13082692 working-precision words and  1275 shell-pairs
 PrismC was handed    13082692 working-precision words and  1275 shell-pairs
 PrismC was handed    13082692 working-precision words and  1275 shell-pairs
 PrismC was handed    13082692 working-precision words and  1275 shell-pairs
 PrismC was handed    13082692 working-precision words and  1275 shell-pairs
 PrismC was handed    13082692 working-precision words and  1275 shell-pairs
 PrismC was handed    13082692 working-precision words and  1275 shell-pairs
 PrismC was handed    13082692 working-precision words and  1275 shell-pairs
 PrismC was handed    13082692 working-precision words and  1275 shell-pairs
 PrismC was handed    13082692 working-precision words and  1275 shell-pairs
 PrismC was handed    13082692 working-precision words and  1275 shell-pairs
 Enter PrismC: JobTyp=21 DoJE=F Cont=F.
 PrismC was handed    13082692 working-precision words and  1275 shell-pairs
 PrismC was handed    13082692 working-precision words and  1275 shell-pairs
 PrismC was handed    13082692 working-precision words and  1275 shell-pairs
 PrismC was handed    13082692 working-precision words and  1275 shell-pairs
 PrismC was handed    13082692 working-precision words and  1275 shell-pairs
 PrismC was handed    13082692 working-precision words and  1275 shell-pairs
 PrismC was handed    13082692 working-precision words and  1275 shell-pairs
 PrismC was handed    13082692 working-precision words and  1275 shell-pairs
 IPart=  1 NShTot=       26432 NShNF=       26432 NShFF=           0 NBatch=         266 AvBLen=        99.4
 IPart=  5 NShTot=       26116 NShNF=       26116 NShFF=           0 NBatch=         245 AvBLen=       106.6
 IPart= 16 NShTot=       26440 NShNF=       26440 NShFF=           0 NBatch=         258 AvBLen=       102.5
 IPart= 23 NShTot=       23636 NShNF=       23636 NShFF=           0 NBatch=         239 AvBLen=        98.9
 IPart= 29 NShTot=       24248 NShNF=       24248 NShFF=           0 NBatch=         273 AvBLen=        88.8
 IPart=  6 NShTot=       26313 NShNF=       26313 NShFF=           0 NBatch=         248 AvBLen=       106.1
 IPart= 30 NShTot=       23638 NShNF=       23638 NShFF=           0 NBatch=         172 AvBLen=       137.4
 IPart= 28 NShTot=       26397 NShNF=       26397 NShFF=           0 NBatch=         255 AvBLen=       103.5
 IPart=  9 NShTot=       26961 NShNF=       26961 NShFF=           0 NBatch=         253 AvBLen=       106.6
 IPart= 17 NShTot=       27229 NShNF=       27229 NShFF=           0 NBatch=         263 AvBLen=       103.5
 IPart= 11 NShTot=       25281 NShNF=       25281 NShFF=           0 NBatch=         254 AvBLen=        99.5
 IPart=  7 NShTot=       22059 NShNF=       22059 NShFF=           0 NBatch=         246 AvBLen=        89.7
 IPart= 24 NShTot=       24898 NShNF=       24898 NShFF=           0 NBatch=         266 AvBLen=        93.6
 IPart= 10 NShTot=       28097 NShNF=       28097 NShFF=           0 NBatch=         240 AvBLen=       117.1
 IPart= 31 NShTot=       25850 NShNF=       25850 NShFF=           0 NBatch=         251 AvBLen=       103.0
 IPart= 25 NShTot=       24673 NShNF=       24673 NShFF=           0 NBatch=         275 AvBLen=        89.7
 IPart= 15 NShTot=       23982 NShNF=       23982 NShFF=           0 NBatch=         245 AvBLen=        97.9
 IPart=  8 NShTot=       25815 NShNF=       25815 NShFF=           0 NBatch=         275 AvBLen=        93.9
 IPart= 27 NShTot=       23716 NShNF=       23716 NShFF=           0 NBatch=         267 AvBLen=        88.8
 IPart=  0 NShTot=       25423 NShNF=       25423 NShFF=           0 NBatch=         268 AvBLen=        94.9
 IPart= 20 NShTot=       28573 NShNF=       28573 NShFF=           0 NBatch=         270 AvBLen=       105.8
 IPart= 14 NShTot=       24882 NShNF=       24882 NShFF=           0 NBatch=         265 AvBLen=        93.9
 IPart= 13 NShTot=       24110 NShNF=       24110 NShFF=           0 NBatch=         266 AvBLen=        90.6
 IPart= 22 NShTot=       23251 NShNF=       23251 NShFF=           0 NBatch=         215 AvBLen=       108.1
 IPart= 19 NShTot=       24962 NShNF=       24962 NShFF=           0 NBatch=         262 AvBLen=        95.3
 IPart= 26 NShTot=       26195 NShNF=       26195 NShFF=           0 NBatch=         256 AvBLen=       102.3
 IPart= 21 NShTot=       28283 NShNF=       28283 NShFF=           0 NBatch=         268 AvBLen=       105.5
 IPart= 18 NShTot=       23562 NShNF=       23562 NShFF=           0 NBatch=         267 AvBLen=        88.2
 IPart=  3 NShTot=       25044 NShNF=       25044 NShFF=           0 NBatch=         223 AvBLen=       112.3
 IPart=  2 NShTot=       26863 NShNF=       26863 NShFF=           0 NBatch=         250 AvBLen=       107.5
 IPart= 12 NShTot=       26998 NShNF=       26998 NShFF=           0 NBatch=         262 AvBLen=       103.0
 IPart=  4 NShTot=       22761 NShNF=       22761 NShFF=           0 NBatch=         288 AvBLen=        79.0
 CoulSu:  NxtVal=         897637.
 FoFCou: FMM=F IPFlag=           0 FMFlag=      100000 FMFlg1=         800
         NFxFlg=           0 DoJE=F BraDBF=F KetDBF=F FulRan=T
         wScrn=  0.000000 ICntrl=    2127 IOpCl=  1 I1Cent=           0 NGrid=           0
         NMat0=    1 NMatS0=      0 NMatT0=    1 NMatD0=    1 NMtDS0=    0 NMtDT0=    0
         CW=    0.222036    0.777964
         WU=    0.000000   12.500000
 Symmetry not used in FoFCou.
 FoFCou:  KetSym=F NOpSet=  1 NOpAb=1 NOp=  1.
 FoFCou:  CnvScl= 1.00D+00 Thresh= 1.00D-10 IAcrcy=      10.
 PrismS was handed   419296852 working-precision words and  1275 shell-pairs
 FoFCou: LinMIO=F DoNuc=F BraDBF=F KetDBF=F HaveP=T PDBF=F HaveZ=T HaveW=F
         NIJTC =      10 NIJTAt=       0 NIJTCD=       0 NIJTT =      10
         IJTBeg=       1 IJTEnd=      10 KLTBeg=       1 KLTEnd=      10
         IPTBeg=       1 IPTEnd=      10 IPTBCv=       1 IPTECv=      10
         IZTBeg=       1 IZTEnd=      10 IZTBCv=       1 IZTECv=      10
         IWTBeg=      11 IWTEnd=      10 IWTBCv=      11 IWTECv=      10
         INTBeg=       1 INTEnd=       0 IFTBCv=       1 IFTECv=      10
 NCel replicated for PrismC:     1
 CoulSu:  IncDef=  1024 NBBP=         813450 NTPThr=   100 NPartT=   32 Incr=         254 LDynOK=F.
 CoulSu:  NPrtUS=  32 ThrOK=T IAlg=1 NPAlg=1 LenDen=           0 LWGrdD=           0 DoCopy=F.
 Enter PrismC: JobTyp=21 DoJE=F Cont=F.
 Linear combination for Coulomb/exchange, wScrn=  0.000000
 CW=    0.222036    0.777964
 Enter PrismC: JobTyp=21 DoJE=F Cont=F.
 Enter PrismC: JobTyp=21 DoJE=F Cont=F.
 Linear combination for Coulomb/exchange, wScrn=  0.000000
 CW=    0.222036    0.777964
 WU=    0.000000   12.500000
 Enter PrismC: JobTyp=21 DoJE=F Cont=F.
 Linear combination for Coulomb/exchange, wScrn=  0.000000
 CW=    0.222036    0.777964
 WU=    0.000000   12.500000
 Enter PrismC: JobTyp=21 DoJE=F Cont=F.
 Linear combination for Coulomb/exchange, wScrn=  0.000000
 CW=    0.222036    0.777964
 WU=    0.000000   12.500000
 Enter PrismC: JobTyp=21 DoJE=F Cont=F.
 Linear combination for Coulomb/exchange, wScrn=  0.000000
 CW=    0.222036    0.777964
 WU=    0.000000   12.500000
 Linear combination for Coulomb/exchange, wScrn=  0.000000
 CW=    0.222036    0.777964
 WU=    0.000000   12.500000
 Enter PrismC: JobTyp=21 DoJE=F Cont=F.
 Linear combination for Coulomb/exchange, wScrn=  0.000000
 CW=    0.222036    0.777964
 WU=    0.000000   12.500000
 Enter PrismC: JobTyp=21 DoJE=F Cont=F.
 Linear combination for Coulomb/exchange, wScrn=  0.000000
 CW=    0.222036    0.777964
 WU=    0.000000   12.500000
 Enter PrismC: JobTyp=21 DoJE=F Cont=F.
 Linear combination for Coulomb/exchange, wScrn=  0.000000
 CW=    0.222036    0.777964
 WU=    0.000000   12.500000
 Enter PrismC: JobTyp=21 DoJE=F Cont=F.
 Linear combination for Coulomb/exchange, wScrn=  0.000000
 CW=    0.222036    0.777964
 WU=    0.000000   12.500000
 PrismC was handed    13082653 working-precision words and  1275 shell-pairs
 Enter PrismC: JobTyp=21 DoJE=F Cont=F.
 Linear combination for Coulomb/exchange, wScrn=  0.000000
 CW=    0.222036    0.777964
 WU=    0.000000   12.500000
 Enter PrismC: JobTyp=21 DoJE=F Cont=F.
 Linear combination for Coulomb/exchange, wScrn=  0.000000
 CW=    0.222036    0.777964
 WU=    0.000000   12.500000
 Enter PrismC: JobTyp=21 DoJE=F Cont=F.
 Linear combination for Coulomb/exchange, wScrn=  0.000000
 CW=    0.222036    0.777964
 WU=    0.000000   12.500000
 Enter PrismC: JobTyp=21 DoJE=F Cont=F.
 Linear combination for Coulomb/exchange, wScrn=  0.000000
 CW=    0.222036    0.777964
 WU=    0.000000   12.500000
 Enter PrismC: JobTyp=21 DoJE=F Cont=F.
 Linear combination for Coulomb/exchange, wScrn=  0.000000
 CW=    0.222036    0.777964
 WU=    0.000000   12.500000
 Enter PrismC: JobTyp=21 DoJE=F Cont=F.
 Enter PrismC: JobTyp=21 DoJE=F Cont=F.
 Linear combination for Coulomb/exchange, wScrn=  0.000000
 CW=    0.222036    0.777964
 WU=    0.000000   12.500000
 Enter PrismC: JobTyp=21 DoJE=F Cont=F.
 Linear combination for Coulomb/exchange, wScrn=  0.000000
 CW=    0.222036    0.777964
 WU=    0.000000   12.500000
 PrismC was handed    13082653 working-precision words and  1275 shell-pairs
 PrismC was handed    13082653 working-precision words and  1275 shell-pairs
 WU=    0.000000   12.500000
 Enter PrismC: JobTyp=21 DoJE=F Cont=F.
 Linear combination for Coulomb/exchange, wScrn=  0.000000
 CW=    0.222036    0.777964
 WU=    0.000000   12.500000
 Enter PrismC: JobTyp=21 DoJE=F Cont=F.
 Linear combination for Coulomb/exchange, wScrn=  0.000000
 CW=    0.222036    0.777964
 WU=    0.000000   12.500000
 Enter PrismC: JobTyp=21 DoJE=F Cont=F.
 Linear combination for Coulomb/exchange, wScrn=  0.000000
 CW=    0.222036    0.777964
 WU=    0.000000   12.500000
 PrismC was handed    13082653 working-precision words and  1275 shell-pairs
 Enter PrismC: JobTyp=21 DoJE=F Cont=F.
 Linear combination for Coulomb/exchange, wScrn=  0.000000
 CW=    0.222036    0.777964
 WU=    0.000000   12.500000
 Enter PrismC: JobTyp=21 DoJE=F Cont=F.
 Linear combination for Coulomb/exchange, wScrn=  0.000000
 CW=    0.222036    0.777964
 WU=    0.000000   12.500000
 Enter PrismC: JobTyp=21 DoJE=F Cont=F.
 Linear combination for Coulomb/exchange, wScrn=  0.000000
 CW=    0.222036    0.777964
 WU=    0.000000   12.500000
 Enter PrismC: JobTyp=21 DoJE=F Cont=F.
 Linear combination for Coulomb/exchange, wScrn=  0.000000
 CW=    0.222036    0.777964
 WU=    0.000000   12.500000
 PrismC was handed    13082653 working-precision words and  1275 shell-pairs
 PrismC was handed    13082653 working-precision words and  1275 shell-pairs
 Enter PrismC: JobTyp=21 DoJE=F Cont=F.
 Linear combination for Coulomb/exchange, wScrn=  0.000000
 CW=    0.222036    0.777964
 WU=    0.000000   12.500000
 Enter PrismC: JobTyp=21 DoJE=F Cont=F.
 Linear combination for Coulomb/exchange, wScrn=  0.000000
 CW=    0.222036    0.777964
 WU=    0.000000   12.500000
 Enter PrismC: JobTyp=21 DoJE=F Cont=F.
 Linear combination for Coulomb/exchange, wScrn=  0.000000
 CW=    0.222036    0.777964
 WU=    0.000000   12.500000
 PrismC was handed    13082653 working-precision words and  1275 shell-pairs
 PrismC was handed    13082653 working-precision words and  1275 shell-pairs
 PrismC was handed    13082653 working-precision words and  1275 shell-pairs
 Linear combination for Coulomb/exchange, wScrn=  0.000000
 CW=    0.222036    0.777964
 WU=    0.000000   12.500000
 Enter PrismC: JobTyp=21 DoJE=F Cont=F.
 Linear combination for Coulomb/exchange, wScrn=  0.000000
 CW=    0.222036    0.777964
 WU=    0.000000   12.500000
 Enter PrismC: JobTyp=21 DoJE=F Cont=F.
 Linear combination for Coulomb/exchange, wScrn=  0.000000
 CW=    0.222036    0.777964
 WU=    0.000000   12.500000
 PrismC was handed    13082653 working-precision words and  1275 shell-pairs
 PrismC was handed    13082653 working-precision words and  1275 shell-pairs
 PrismC was handed    13082653 working-precision words and  1275 shell-pairs
 PrismC was handed    13082653 working-precision words and  1275 shell-pairs
 PrismC was handed    13082653 working-precision words and  1275 shell-pairs
 PrismC was handed    13082653 working-precision words and  1275 shell-pairs
 PrismC was handed    13082653 working-precision words and  1275 shell-pairs
 PrismC was handed    13082653 working-precision words and  1275 shell-pairs
 PrismC was handed    13082653 working-precision words and  1275 shell-pairs
 PrismC was handed    13082653 working-precision words and  1275 shell-pairs
 Enter PrismC: JobTyp=21 DoJE=F Cont=F.
 Linear combination for Coulomb/exchange, wScrn=  0.000000
 CW=    0.222036    0.777964
 WU=    0.000000   12.500000
 PrismC was handed    13082653 working-precision words and  1275 shell-pairs
 PrismC was handed    13082653 working-precision words and  1275 shell-pairs
 PrismC was handed    13082653 working-precision words and  1275 shell-pairs
 PrismC was handed    13082653 working-precision words and  1275 shell-pairs
 PrismC was handed    13082653 working-precision words and  1275 shell-pairs
 Enter PrismC: JobTyp=21 DoJE=F Cont=F.
 Linear combination for Coulomb/exchange, wScrn=  0.000000
 CW=    0.222036    0.777964
 WU=    0.000000   12.500000
 PrismC was handed    13082653 working-precision words and  1275 shell-pairs
 PrismC was handed    13082653 working-precision words and  1275 shell-pairs
 PrismC was handed    13082653 working-precision words and  1275 shell-pairs
 PrismC was handed    13082653 working-precision words and  1275 shell-pairs
 PrismC:  IPart=     0 DynPar=T LinDyn=F Incr=         254 UseFst=F UseS4=T IGathr=2.
 PrismC was handed    13082653 working-precision words and  1275 shell-pairs
 PrismC was handed    13082653 working-precision words and  1275 shell-pairs
 PrismC was handed    13082653 working-precision words and  1275 shell-pairs
 PrismC was handed    13082653 working-precision words and  1275 shell-pairs
 IPart=  8 NShTot=       26544 NShNF=       26544 NShFF=           0 NBatch=         265 AvBLen=       100.2
 IPart= 22 NShTot=       24722 NShNF=       24722 NShFF=           0 NBatch=         245 AvBLen=       100.9
 IPart= 19 NShTot=       25290 NShNF=       25290 NShFF=           0 NBatch=         223 AvBLen=       113.4
 IPart= 30 NShTot=       25909 NShNF=       25909 NShFF=           0 NBatch=         343 AvBLen=        75.5
 IPart=  3 NShTot=       25177 NShNF=       25177 NShFF=           0 NBatch=         277 AvBLen=        90.9
 IPart= 18 NShTot=       28009 NShNF=       28009 NShFF=           0 NBatch=         311 AvBLen=        90.1
 IPart= 23 NShTot=       21544 NShNF=       21544 NShFF=           0 NBatch=         254 AvBLen=        84.8
 IPart=  0 NShTot=       26027 NShNF=       26027 NShFF=           0 NBatch=         321 AvBLen=        81.1
 IPart= 14 NShTot=       23544 NShNF=       23544 NShFF=           0 NBatch=         323 AvBLen=        72.9
 IPart= 27 NShTot=       26014 NShNF=       26014 NShFF=           0 NBatch=         325 AvBLen=        80.0
 IPart=  5 NShTot=       26675 NShNF=       26675 NShFF=           0 NBatch=         287 AvBLen=        92.9
 IPart= 25 NShTot=       25462 NShNF=       25462 NShFF=           0 NBatch=         336 AvBLen=        75.8
 IPart= 26 NShTot=       23023 NShNF=       23023 NShFF=           0 NBatch=         281 AvBLen=        81.9
 IPart=  4 NShTot=       25150 NShNF=       25150 NShFF=           0 NBatch=         346 AvBLen=        72.7
 IPart= 13 NShTot=       25681 NShNF=       25681 NShFF=           0 NBatch=         321 AvBLen=        80.0
 IPart= 12 NShTot=       23566 NShNF=       23566 NShFF=           0 NBatch=         323 AvBLen=        73.0
 IPart=  7 NShTot=       28129 NShNF=       28129 NShFF=           0 NBatch=         317 AvBLen=        88.7
 IPart= 24 NShTot=       24592 NShNF=       24592 NShFF=           0 NBatch=         335 AvBLen=        73.4
 IPart=  9 NShTot=       29011 NShNF=       29011 NShFF=           0 NBatch=         327 AvBLen=        88.7
 IPart= 10 NShTot=       24832 NShNF=       24832 NShFF=           0 NBatch=         297 AvBLen=        83.6
 IPart= 15 NShTot=       28360 NShNF=       28360 NShFF=           0 NBatch=         314 AvBLen=        90.3
 IPart= 16 NShTot=       28210 NShNF=       28210 NShFF=           0 NBatch=         272 AvBLen=       103.7
 IPart=  6 NShTot=       26418 NShNF=       26418 NShFF=           0 NBatch=         327 AvBLen=        80.8
 IPart= 20 NShTot=       24047 NShNF=       24047 NShFF=           0 NBatch=         326 AvBLen=        73.8
 IPart= 17 NShTot=       23267 NShNF=       23267 NShFF=           0 NBatch=         273 AvBLen=        85.2
 IPart= 29 NShTot=       23098 NShNF=       23098 NShFF=           0 NBatch=         337 AvBLen=        68.5
 IPart=  1 NShTot=       25516 NShNF=       25516 NShFF=           0 NBatch=         274 AvBLen=        93.1
 IPart=  2 NShTot=       28206 NShNF=       28206 NShFF=           0 NBatch=         330 AvBLen=        85.5
 IPart= 28 NShTot=       23520 NShNF=       23520 NShFF=           0 NBatch=         284 AvBLen=        82.8
 IPart= 31 NShTot=       22676 NShNF=       22676 NShFF=           0 NBatch=         253 AvBLen=        89.6
 IPart= 11 NShTot=       25567 NShNF=       25567 NShFF=           0 NBatch=         329 AvBLen=        77.7
 IPart= 21 NShTot=       24841 NShNF=       24841 NShFF=           0 NBatch=         287 AvBLen=        86.6
 CoulSu:  NxtVal=         897637.
 ReadGW:  IGet=0 IStart=           1 Next=           1 LGW=           0.
 Remaining memory in FofDFT      399.95 Mw
 CkSvGd:  ISavGI=        -1 IRadAn=       5 IRASav=       5 ISavGd=        -1.
 CalDSu:  NPrtUS=  32 ThrOK=T IAlg=1 NPAlg=2 DoDPD=T LenP=       12090 LenD1P=             0.
 IPart=  0 IRanGd=          0 ScrnBf=T ScrnGd=T RCrit=4.00D+00 DoMicB=T.
 IPart= 24         2620 of         2642 points in       2 batches and        6 microbatches, Max-NSigAt=       5 Max-NSgAt2=       5
 IPart= 18         3301 of         3596 points in       4 batches and        8 microbatches, Max-NSigAt=       5 Max-NSgAt2=       5
 IPart= 23         2538 of         2538 points in       2 batches and        6 microbatches, Max-NSigAt=       5 Max-NSgAt2=       5
 IPart= 10         2817 of         2964 points in       3 batches and       22 microbatches, Max-NSigAt=       5 Max-NSgAt2=       5
 IPart=  0         3790 of         4224 points in       5 batches and        9 microbatches, Max-NSigAt=       5 Max-NSgAt2=       5
 IPart=  5         3190 of         3568 points in       4 batches and       31 microbatches, Max-NSigAt=       5 Max-NSgAt2=       5
 IPart= 27         2985 of         3246 points in       3 batches and       20 microbatches, Max-NSigAt=       5 Max-NSgAt2=       5
 IPart= 22         2556 of         2556 points in       2 batches and        6 microbatches, Max-NSigAt=       5 Max-NSgAt2=       5
 IPart= 28         2584 of         2584 points in       2 batches and        6 microbatches, Max-NSigAt=       5 Max-NSgAt2=       5
 IPart= 17         2711 of         2964 points in       3 batches and       26 microbatches, Max-NSigAt=       5 Max-NSgAt2=       5
 IPart= 26         2659 of         2732 points in       2 batches and        9 microbatches, Max-NSigAt=       5 Max-NSgAt2=       5
 IPart= 12         3672 of         4172 points in       5 batches and       24 microbatches, Max-NSigAt=       5 Max-NSgAt2=       5
 IPart= 14         3461 of         3968 points in       5 batches and       48 microbatches, Max-NSigAt=       5 Max-NSgAt2=       5
 IPart= 16         3098 of         3336 points in       3 batches and       10 microbatches, Max-NSigAt=       5 Max-NSgAt2=       5
 IPart= 29         3073 of         3322 points in       3 batches and       42 microbatches, Max-NSigAt=       5 Max-NSgAt2=       5
 IPart= 11         3179 of         3568 points in       4 batches and       41 microbatches, Max-NSigAt=       5 Max-NSgAt2=       5
 IPart=  1         3625 of         4214 points in       6 batches and       52 microbatches, Max-NSigAt=       5 Max-NSgAt2=       5
 IPart=  8         3206 of         3596 points in       4 batches and       26 microbatches, Max-NSigAt=       5 Max-NSgAt2=       5
 IPart= 31         3518 of         3540 points in       3 batches and        9 microbatches, Max-NSigAt=       5 Max-NSgAt2=       5
 IPart= 25         3832 of         4228 points in       5 batches and       26 microbatches, Max-NSigAt=       5 Max-NSgAt2=       5
 IPart=  3         3527 of         3540 points in       3 batches and        9 microbatches, Max-NSigAt=       5 Max-NSgAt2=       5
 IPart= 19         4060 of         4446 points in       5 batches and       15 microbatches, Max-NSigAt=       5 Max-NSgAt2=       5
 IPart=  9         3798 of         4200 points in       5 batches and       28 microbatches, Max-NSigAt=       5 Max-NSgAt2=       5
 IPart=  4         3421 of         3540 points in       3 batches and       10 microbatches, Max-NSigAt=       5 Max-NSgAt2=       5
 IPart= 13         3491 of         3564 points in       3 batches and       11 microbatches, Max-NSigAt=       5 Max-NSgAt2=       5
 IPart= 21         3520 of         3524 points in       3 batches and       10 microbatches, Max-NSigAt=       5 Max-NSgAt2=       5
 IPart=  6         3449 of         3540 points in       3 batches and       13 microbatches, Max-NSigAt=       5 Max-NSgAt2=       5
 IPart=  2         3554 of         3850 points in       4 batches and       35 microbatches, Max-NSigAt=       5 Max-NSgAt2=       5
 IPart= 15         3551 of         3764 points in       4 batches and       28 microbatches, Max-NSigAt=       5 Max-NSgAt2=       5
 IPart= 20         3450 of         3540 points in       3 batches and       12 microbatches, Max-NSigAt=       5 Max-NSgAt2=       5
 IPart=  7         4239 of         4650 points in       5 batches and       34 microbatches, Max-NSigAt=       5 Max-NSgAt2=       5
 IPart= 30         4148 of         4544 points in       5 batches and       47 microbatches, Max-NSigAt=       5 Max-NSgAt2=       5
 Forces at end of L703
 I=    0 X=   8.455261639193D-02 Y=   4.111165618146D-01 Z=   5.181111392501D-02
 I=    1 X=   2.093383398648D-02 Y=   7.423763117064D-02 Z=   1.285227946708D-02
 I=    2 X=   8.670106552828D-04 Y=  -2.842671413526D-03 Z=   4.471097136927D-05
 I=    3 X=   4.803245359972D-04 Y=  -3.327308207872D-03 Z=   7.335800721033D-04
 I=    4 X=   3.692688050854D-04 Y=  -2.064957638712D-02 Z=   2.109322115000D-04
 I=    5 X=  -2.265043798285D-02 Y=  -4.741807516213D-02 Z=  -1.384150272205D-02
 FrcOut:
 IF    =    36 IFX   =    51 IFXYZ =    66
 IFFX  =    81 IFFFX =   201 IFLen =    15
 IFFLen=   120 IFFFLn=     0 IEDerv=   201
 LEDerv=   773 IFroze=  1163 ICStrt= 39591
 FCEst1:  Generated internal coordinate force constants:
                1             2             3             4             5 
      1  0.735433D+00
      2  0.264546D-01  0.246044D+00
      3 -0.626022D-02  0.158422D-01  0.743576D+00
      4 -0.119461D+00 -0.115205D-01  0.586716D-02  0.804240D-01
      5 -0.115454D-01 -0.713169D-01  0.198589D-01  0.105910D-01  0.463013D-01
      6  0.000000D+00  0.000000D+00 -0.362127D+00  0.000000D+00  0.000000D+00
      7 -0.298986D+00 -0.585150D-02  0.103443D+00  0.192965D-01 -0.399864D-04
      8  0.113362D-01 -0.708581D-01 -0.200887D-01 -0.800403D-04  0.108846D-01
      9  0.109487D+00 -0.101465D-01 -0.182756D+00  0.334601D-01 -0.693364D-04
     10 -0.300437D+00 -0.614745D-03 -0.106481D+00  0.193477D-01  0.464253D-04
     11 -0.177419D-01 -0.642332D-01 -0.105647D-01  0.642650D-04  0.108420D-01
     12 -0.106657D+00 -0.667300D-03 -0.177790D+00 -0.334834D-01 -0.143350D-03
     13 -0.165483D-01 -0.846783D-02  0.343074D-02  0.393304D-03  0.947940D-03
     14 -0.850352D-02 -0.396358D-01 -0.504766D-02  0.945258D-03  0.328901D-02
     15  0.342992D-02 -0.502836D-02 -0.209028D-01 -0.584392D-02 -0.196462D-01
                6             7             8             9            10 
      6  0.362127D+00
      7  0.000000D+00  0.291863D+00
      8  0.000000D+00  0.541842D-02  0.461301D-01
      9  0.000000D+00 -0.121838D+00  0.939555D-02  0.150859D+00
     10  0.000000D+00 -0.966591D-02 -0.998919D-04 -0.167607D-01  0.290841D+00
     11  0.000000D+00  0.309753D-04  0.108414D-01  0.537111D-04  0.620702D-03
     12  0.000000D+00  0.167276D-01  0.109869D-03  0.290057D-01  0.123364D+00
     13  0.000000D+00 -0.250748D-02 -0.165747D-01 -0.434796D-02 -0.852015D-04
     14  0.000000D+00  0.442086D-03  0.300190D-02  0.766578D-03  0.475098D-04
     15  0.000000D+00  0.166739D-02  0.105833D-01  0.289125D-02 -0.122096D-03
               11            12            13            14            15 
     11  0.493846D-01
     12  0.743282D-03  0.148630D+00
     13  0.170259D-01  0.485050D-04  0.187477D-01
     14 -0.683478D-02 -0.425007D-04  0.706867D-02  0.401797D-01
     15  0.976766D-02  0.154535D-03  0.868717D-03  0.432359D-02  0.178570D-01
 Quadrupole    = 7.83439596D-01-1.55887838D+00 7.75438780D-01
                -2.93854037D-02 7.74698455D-03-1.92558248D-02
 -------------------------------------------------------------------
 Center     Atomic                   Forces (Hartrees/Bohr)
 Number     Number              X              Y              Z
 -------------------------------------------------------------------
      1        6          -0.020933834   -0.074237631   -0.012852279
      2        1          -0.000867011    0.002842671   -0.000044711
      3        1          -0.000480325    0.003327308   -0.000733580
      4        1          -0.000369269    0.020649576   -0.000210932
      5        1           0.022650438    0.047418075    0.013841503
 -------------------------------------------------------------------
 Cartesian Forces:  Max     0.074237631 RMS     0.025185970
 From PutF, contents of force:
   1   -0.3054964269D-01
   2   -0.1786649872D-01
   3    0.3652208264D-03
   4    0.1783705658D-02
   5    0.6637788343D-04
   6    0.3643115827D-01
   7   -0.4960951144D-04
   8   -0.4471097137D-04
   9   -0.5351109094D-01
 -----------------------------------------------------------------------------------------------
                       Internal Coordinate Forces (Hartree/Bohr or radian)
  Cent   Atom   N1       Length/X         N2         Alpha/Y        N3         Beta/Z          J
 -----------------------------------------------------------------------------------------------
      1  C 
      2  H        1  -0.000045(     1)
      3  H        1  -0.000050(     2)      2   0.001784(     5)
      4  H        1   0.000365(     3)      2   0.000066(     6)      3   0.036431(     8)     0
      5  H        1  -0.053511(     4)      2  -0.017866(     7)      3  -0.030550(     9)     0
 -----------------------------------------------------------------------------------------------
 Internal  Forces:  Max     0.053511091 RMS     0.024600096
 Force constants in Cartesian coordinates: 
                1             2             3             4             5 
      1  0.735433D+00
      2  0.264546D-01  0.246044D+00
      3 -0.626022D-02  0.158422D-01  0.743576D+00
      4 -0.119461D+00 -0.115205D-01  0.586716D-02  0.804240D-01
      5 -0.115454D-01 -0.713169D-01  0.198589D-01  0.105910D-01  0.463013D-01
      6  0.000000D+00  0.000000D+00 -0.362127D+00  0.000000D+00  0.000000D+00
      7 -0.298986D+00 -0.585150D-02  0.103443D+00  0.192965D-01 -0.399864D-04
      8  0.113362D-01 -0.708581D-01 -0.200887D-01 -0.800403D-04  0.108846D-01
      9  0.109487D+00 -0.101465D-01 -0.182756D+00  0.334601D-01 -0.693364D-04
     10 -0.300437D+00 -0.614745D-03 -0.106481D+00  0.193477D-01  0.464253D-04
     11 -0.177419D-01 -0.642332D-01 -0.105647D-01  0.642650D-04  0.108420D-01
     12 -0.106657D+00 -0.667300D-03 -0.177790D+00 -0.334834D-01 -0.143350D-03
     13 -0.165483D-01 -0.846783D-02  0.343074D-02  0.393304D-03  0.947940D-03
     14 -0.850352D-02 -0.396358D-01 -0.504766D-02  0.945258D-03  0.328901D-02
     15  0.342992D-02 -0.502836D-02 -0.209028D-01 -0.584392D-02 -0.196462D-01
                6             7             8             9            10 
      6  0.362127D+00
      7  0.000000D+00  0.291863D+00
      8  0.000000D+00  0.541842D-02  0.461301D-01
      9  0.000000D+00 -0.121838D+00  0.939555D-02  0.150859D+00
     10  0.000000D+00 -0.966591D-02 -0.998919D-04 -0.167607D-01  0.290841D+00
     11  0.000000D+00  0.309753D-04  0.108414D-01  0.537111D-04  0.620702D-03
     12  0.000000D+00  0.167276D-01  0.109869D-03  0.290057D-01  0.123364D+00
     13  0.000000D+00 -0.250748D-02 -0.165747D-01 -0.434796D-02 -0.852015D-04
     14  0.000000D+00  0.442086D-03  0.300190D-02  0.766578D-03  0.475098D-04
     15  0.000000D+00  0.166739D-02  0.105833D-01  0.289125D-02 -0.122096D-03
               11            12            13            14            15 
     11  0.493846D-01
     12  0.743282D-03  0.148630D+00
     13  0.170259D-01  0.485050D-04  0.187477D-01
     14 -0.683478D-02 -0.425007D-04  0.706867D-02  0.401797D-01
     15  0.976766D-02  0.154535D-03  0.868717D-03  0.432359D-02  0.178570D-01
 FCInt: Cartesian first derivatives: 
                 1             2             3             4             5 
      1   0.000000D+00  0.000000D+00  0.000000D+00  0.000000D+00  0.000000D+00
      2   0.000000D+00  0.000000D+00  0.000000D+00  0.000000D+00  0.000000D+00
      3   0.000000D+00  0.000000D+00  0.000000D+00  0.000000D+00  0.000000D+00
 FCInt: Cartesian force constants: 
                1             2             3             4             5 
      1  0.735433D+00
      2  0.264546D-01  0.246044D+00
      3 -0.626022D-02  0.158422D-01  0.743576D+00
      4 -0.119461D+00 -0.115205D-01  0.586716D-02  0.804240D-01
      5 -0.115454D-01 -0.713169D-01  0.198589D-01  0.105910D-01  0.463013D-01
      6  0.000000D+00  0.000000D+00 -0.362127D+00  0.000000D+00  0.000000D+00
      7 -0.298986D+00 -0.585150D-02  0.103443D+00  0.192965D-01 -0.399864D-04
      8  0.113362D-01 -0.708581D-01 -0.200887D-01 -0.800403D-04  0.108846D-01
      9  0.109487D+00 -0.101465D-01 -0.182756D+00  0.334601D-01 -0.693364D-04
     10 -0.300437D+00 -0.614745D-03 -0.106481D+00  0.193477D-01  0.464253D-04
     11 -0.177419D-01 -0.642332D-01 -0.105647D-01  0.642650D-04  0.108420D-01
     12 -0.106657D+00 -0.667300D-03 -0.177790D+00 -0.334834D-01 -0.143350D-03
     13 -0.165483D-01 -0.846783D-02  0.343074D-02  0.393304D-03  0.947940D-03
     14 -0.850352D-02 -0.396358D-01 -0.504766D-02  0.945258D-03  0.328901D-02
     15  0.342992D-02 -0.502836D-02 -0.209028D-01 -0.584392D-02 -0.196462D-01
                6             7             8             9            10 
      6  0.362127D+00
      7  0.000000D+00  0.291863D+00
      8  0.000000D+00  0.541842D-02  0.461301D-01
      9  0.000000D+00 -0.121838D+00  0.939555D-02  0.150859D+00
     10  0.000000D+00 -0.966591D-02 -0.998919D-04 -0.167607D-01  0.290841D+00
     11  0.000000D+00  0.309753D-04  0.108414D-01  0.537111D-04  0.620702D-03
     12  0.000000D+00  0.167276D-01  0.109869D-03  0.290057D-01  0.123364D+00
     13  0.000000D+00 -0.250748D-02 -0.165747D-01 -0.434796D-02 -0.852015D-04
     14  0.000000D+00  0.442086D-03  0.300190D-02  0.766578D-03  0.475098D-04
     15  0.000000D+00  0.166739D-02  0.105833D-01  0.289125D-02 -0.122096D-03
               11            12            13            14            15 
     11  0.493846D-01
     12  0.743282D-03  0.148630D+00
     13  0.170259D-01  0.485050D-04  0.187477D-01
     14 -0.683478D-02 -0.425007D-04  0.706867D-02  0.401797D-01
     15  0.976766D-02  0.154535D-03  0.868717D-03  0.432359D-02  0.178570D-01
 Internal force constants: 
                1             2             3             4             5 
      1  0.362127D+00
      2  0.000000D+00  0.362127D+00
      3  0.000000D+00  0.000000D+00  0.362127D+00
      4  0.000000D+00  0.000000D+00  0.000000D+00  0.430660D-01
      5  0.000000D+00  0.000000D+00  0.000000D+00  0.000000D+00  0.334583D+00
      6  0.000000D+00  0.000000D+00  0.000000D+00  0.000000D+00  0.160541D+00
      7  0.000000D+00  0.000000D+00  0.000000D+00  0.000000D+00  0.260887D-01
      8  0.000000D+00  0.000000D+00  0.000000D+00  0.000000D+00 -0.456405D-03
      9  0.000000D+00  0.000000D+00  0.000000D+00  0.000000D+00 -0.384122D-01
                6             7             8             9 
      6  0.321091D+00
      7  0.139510D-02  0.244145D+00
      8 -0.136590D-02 -0.661099D-01  0.153693D+00
      9  0.513460D-03 -0.569746D-02 -0.119994D+00  0.230500D+00
 Frcnst in PutFF: 
                1             2             3             4             5 
      1  0.230500D+00
      2 -0.569746D-02  0.244145D+00
      3  0.000000D+00  0.000000D+00  0.362127D+00
      4 -0.384122D-01  0.260887D-01  0.000000D+00  0.334583D+00
      5  0.513460D-03  0.139510D-02  0.000000D+00  0.160541D+00  0.321091D+00
      6 -0.119994D+00 -0.661099D-01  0.000000D+00 -0.456405D-03 -0.136590D-02
      7  0.000000D+00  0.000000D+00  0.000000D+00  0.000000D+00  0.000000D+00
      8  0.000000D+00  0.000000D+00  0.000000D+00  0.000000D+00  0.000000D+00
      9  0.000000D+00  0.000000D+00  0.000000D+00  0.000000D+00  0.000000D+00
                6             7             8             9 
      6  0.153693D+00
      7  0.000000D+00  0.362127D+00
      8  0.000000D+00  0.000000D+00  0.362127D+00
      9  0.000000D+00  0.000000D+00  0.000000D+00  0.430660D-01
 Force constants in internal coordinates: 
                1             2             3             4             5 
      1  0.362127D+00
      2  0.000000D+00  0.362127D+00
      3  0.000000D+00  0.000000D+00  0.362127D+00
      4  0.000000D+00  0.000000D+00  0.000000D+00  0.430660D-01
      5  0.000000D+00  0.000000D+00  0.000000D+00  0.000000D+00  0.334583D+00
      6  0.000000D+00  0.000000D+00  0.000000D+00  0.000000D+00  0.160541D+00
      7  0.000000D+00  0.000000D+00  0.000000D+00  0.000000D+00  0.260887D-01
      8  0.000000D+00  0.000000D+00  0.000000D+00  0.000000D+00 -0.456405D-03
      9  0.000000D+00  0.000000D+00  0.000000D+00  0.000000D+00 -0.384122D-01
                6             7             8             9 
      6  0.321091D+00
      7  0.139510D-02  0.244145D+00
      8 -0.136590D-02 -0.661099D-01  0.153693D+00
      9  0.513460D-03 -0.569746D-02 -0.119994D+00  0.230500D+00
 Final forces over variables, Energy=-4.03762306D+01:
 -3.05496427D-02-1.78664987D-02 3.65220826D-04 1.78370566D-03
  6.63778834D-05 3.64311583D-02-4.96095114D-05-4.47109714D-05
 -5.35110909D-02

 GradGradGradGradGradGradGradGradGradGradGradGradGradGradGradGradGradGrad
 Berny optimization.
 Search for a local minimum.
 Step number   1 out of a maximum of   50
 All quantities printed in internal units (Hartrees-Bohrs-Radians)
 Second derivative matrix not updated -- first step.
 The second derivative matrix:
                         BABS1     AABS1      R3        A2        A3
           BABS1        0.23050
           AABS1       -0.00570   0.24414
           R3           0.00000   0.00000   0.36213
           A2          -0.03841   0.02609  -0.00000   0.33458
           A3           0.00051   0.00140  -0.00000   0.16054   0.32109
           D3          -0.11999  -0.06611  -0.00000  -0.00046  -0.00137
           R2           0.00000  -0.00000  -0.00000   0.00000   0.00000
           R1           0.00000   0.00000   0.00000   0.00000   0.00000
           RTS          0.00000  -0.00000   0.00000  -0.00000   0.00000
                          D3        R2        R1        RTS
           D3           0.15369
           R2          -0.00000   0.36213
           R1           0.00000   0.00000   0.36213
           RTS          0.00000   0.00000   0.00000   0.04307
 ITU=  0
     Eigenvalues ---    0.22843   0.246211000.000001000.000001000.00000
     Eigenvalues --- 1000.000001000.000001000.000001000.00000
 RFO step:  Lambda=-5.34527056D-03 EMin= 2.28434258D-01
 Linear search not attempted -- first point.
 Variable       Old X    -DE/DX   Delta X   Delta X   Delta X     New X
                                 (Linear)    (Quad)   (Total)
  BABS1       1.85965  -0.03055   0.00000  -0.13133  -0.13133   1.72832
  AABS1       1.74329  -0.01787   0.00000  -0.07461  -0.07461   1.66867
    R3        2.03750   0.00037   0.00000   0.00000   0.00000   2.03750
    A2        2.09391   0.00178   0.00000   0.00000   0.00000   2.09391
    A3        2.09476   0.00007   0.00000   0.00000   0.00000   2.09476
    D3        3.13823   0.03643   0.00000   0.00000   0.00000   3.13823
    R2        2.03750  -0.00005   0.00000   0.00000   0.00000   2.03750
    R1        2.03750  -0.00004   0.00000   0.00000   0.00000   2.03750
   RTS        3.77945  -0.05351   0.00000   0.00000   0.00000   3.77945
         Item               Value     Threshold  Converged?
 Maximum Force            0.030550     0.000450     NO 
 RMS     Force            0.025025     0.000300     NO 
 Maximum Displacement     0.131335     0.001800     NO 
 RMS     Displacement     0.050350     0.001200     NO 
 Predicted change in Energy=-2.733614D-03
 GradGradGradGradGradGradGradGradGradGradGradGradGradGradGradGradGradGrad

 ---------------------------------------------------------------------------------------------------
                            Z-MATRIX (ANGSTROMS AND DEGREES)
   CD    Cent   Atom    N1       Length/X        N2       Alpha/Y        N3        Beta/Z          J
 ---------------------------------------------------------------------------------------------------
      1      1  C 
      2      2  H        1   1.078200(     1)
      3      3  H        1   1.078200(     2)      2  119.972(     5)
      4      4  H        1   1.078200(     3)      2  120.021(     6)      3  179.808(     8)      0
      5      5  H        1   2.000000(     4)      2   95.608(     7)      3   99.025(     9)      0
 ---------------------------------------------------------------------------------------------------
                         Z-Matrix orientation:                         
 ---------------------------------------------------------------------
 Center     Atomic      Atomic             Coordinates (Angstroms)
 Number     Number       Type             X           Y           Z
 ---------------------------------------------------------------------
      1          6           0        0.000000    0.000000    0.000000
      2          1           0        0.000000    0.000000    1.078200
      3          1           0        0.934011    0.000000   -0.538645
      4          1           0       -0.933548   -0.003135   -0.539437
      5          1           0       -0.312235   -1.965785   -0.195443
 ---------------------------------------------------------------------
                    Distance matrix (angstroms):
                    1          2          3          4          5
     1  C    0.000000
     2  H    1.078200   0.000000
     3  H    1.078200   1.867235   0.000000
     4  H    1.078200   1.867692   1.867562   0.000000
     5  H    2.000000   2.363042   2.352707   2.087189   0.000000
 Symmetry turned off by external request.
 Stoichiometry    CH4
 Framework group  C1[X(CH4)]
 Deg. of freedom     9
 Full point group                 C1      NOp   1
 Rotational constants (GHZ):    148.3479077     91.3055843     89.5721536
 Standard basis: Aug-CC-pVTZ (5D, 7F)
   138 basis functions,   180 primitive gaussians,   155 cartesian basis functions
     5 alpha electrons        5 beta electrons
       nuclear repulsion energy        11.9743587664 Hartrees.
 NAtoms=    5 NActive=    5 NUniq=    5 SFac= 1.00D+00 NAtFMM=   60 NAOKFM=F Big=F
 Integral buffers will be    131072 words long.
 Raffenetti 2 integral format.
 Two-electron integral symmetry is turned off.
 Nuclear repulsion after empirical dispersion term =       11.9735835912 Hartrees.
 One-electron integrals computed using PRISM.
 NBasis=   138 RedAO= T EigKep=  8.91D-05  NBF=   138
 NBsUse=   138 1.00D-06 EigRej= -1.00D+00 NBFU=   138
 ExpMin= 2.53D-02 ExpMax= 8.24D+03 ExpMxC= 2.81D+02 IAcc=3 IRadAn=         5 AccDes= 0.00D+00
 Harris functional with IExCor= 4639 and IRadAn=       5 diagonalized for initial guess.
 HarFok:  IExCor= 4639 AccDes= 0.00D+00 IRadAn=         5 IDoV= 1 UseB2=F ITyADJ=14
 ICtDFT=  3500011 ScaDFX=  1.000000  1.000000  1.000000  1.000000
 FoFCou: FMM=F IPFlag=           0 FMFlag=      100000 FMFlg1=           0
         NFxFlg=           0 DoJE=T BraDBF=F KetDBF=T FulRan=T
         wScrn=  0.000000 ICntrl=     500 IOpCl=  0 I1Cent=   200000004 NGrid=           0
         NMat0=    1 NMatS0=      1 NMatT0=    0 NMatD0=    1 NMtDS0=    0 NMtDT0=    0
 Symmetry not used in FoFCou.
 Mixing orbitals, IMix= 1 IMixAn=  0 NRI=1 NE=    5 Coef=  7.07106781D-01  7.07106781D-01
 Mixing orbitals, IMix= 1 IMixAn=  0 NRI=1 NE=    5 Coef= -7.07106781D-01  7.07106781D-01
 Initial guess <Sx>= 0.0000 <Sy>= 0.0000 <Sz>= 0.0000 <S**2>= 1.0000 S= 0.6180
 Keep R1 and R2 ints in memory in canonical form, NReq=186090023.
 Requested convergence on RMS density matrix=1.00D-08 within 128 cycles.
 Requested convergence on MAX density matrix=1.00D-06.
 Requested convergence on             energy=1.00D-06.
 No special actions if energy rises.
 SCF Done:  E(UwB97XD) =  -40.3804559669     A.U. after   18 cycles
            NFock= 18  Conv=0.81D-08     -V/T= 2.0127
 <Sx>= 0.0000 <Sy>= 0.0000 <Sz>= 0.0000 <S**2>= 0.0709 S= 0.0665
 <L.S>=  0.00000000000    
 Annihilation of the first spin contaminant:
 S**2 before annihilation     0.0709,   after     0.0001
 DipInt: DoE/N= T T RetVal/Mat= T F Init=T NMatP=  1 IDeriv=0 Min/MaxMlt=  1  1
 Entering OneElI...
 Multipole integrals L=1 to 1 MinM= 0 MaxM= 0.
 Requested accuracy = 0.1000D-12
 PrsmSu:  NPrtUS=   1 ThrOK=F IAlg=1 NPAlg=1 LenDen=           0.
 Prism:   IPart=     0 DynPar=F LinDyn=F Incr=          12.
 PRISM was handed   419323234 working-precision words and  1275 shell-pairs
 IPart=  0 NShTot=        1275 NBatch=          37 AvBLen=        34.5
 PrSmSu:  NxtVal=             13.
 Entering OneElI...
 Calculate overlap and kinetic energy integrals
    NBasis = 155  MinDer = 1  MaxDer = 1
 Requested accuracy = 0.1000D-12
 PrsmSu:  NPrtUS=  32 ThrOK=T IAlg=1 NPAlg=1 LenDen=           0.
 Prism:   IPart=     0 DynPar=F LinDyn=F Incr=           1.
 PRISM was handed    13082544 working-precision words and  1275 shell-pairs
 PRISM was handed    13082544 working-precision words and  1275 shell-pairs
 PRISM was handed    13082544 working-precision words and  1275 shell-pairs
 PRISM was handed    13082544 working-precision words and  1275 shell-pairs
 PRISM was handed    13082544 working-precision words and  1275 shell-pairs
 PRISM was handed    13082544 working-precision words and  1275 shell-pairs
 PRISM was handed    13082544 working-precision words and  1275 shell-pairs
 PRISM was handed    13082544 working-precision words and  1275 shell-pairs
 PRISM was handed    13082544 working-precision words and  1275 shell-pairs
 PRISM was handed    13082544 working-precision words and  1275 shell-pairs
 PRISM was handed    13082544 working-precision words and  1275 shell-pairs
 PRISM was handed    13082544 working-precision words and  1275 shell-pairs
 PRISM was handed    13082544 working-precision words and  1275 shell-pairs
[...]
 FrcOut:
 IF    =    36 IFX   =    51 IFXYZ =    66
 IFFX  =    81 IFFFX =    81 IFLen =    15
 IFFLen=     0 IFFFLn=     0 IEDerv=    81
 LEDerv=   773 IFroze=  1043 ICStrt= 39471
 -------------------------------------------------------------------
 Center     Atomic                   Forces (Hartrees/Bohr)
 Number     Number              X              Y              Z
 -------------------------------------------------------------------
      1        6           0.000265522   -0.091183724   -0.000003189
      2        1          -0.000053816    0.009687682    0.000048296
      3        1           0.000024131    0.009784282   -0.000074087
      4        1          -0.000064416    0.009743245   -0.000035152
      5        1          -0.000171422    0.061968515    0.000064133
 -------------------------------------------------------------------
 Cartesian Forces:  Max     0.091183724 RMS     0.028797226
 From PutF, contents of force:
   1    0.7998219343D-04
   2   -0.1507850064D-03
   3    0.4503188829D-04
   4    0.1062023743D-03
   5    0.2970119097D-04
   6    0.1718893685D-01
   7    0.5791666551D-04
   8    0.4829553087D-04
   9   -0.6196876913D-01
 -----------------------------------------------------------------------------------------------
                       Internal Coordinate Forces (Hartree/Bohr or radian)
  Cent   Atom   N1       Length/X         N2         Alpha/Y        N3         Beta/Z          J
 -----------------------------------------------------------------------------------------------
      1  C 
      2  H        1   0.000048(     1)
      3  H        1   0.000058(     2)      2   0.000106(     5)
      4  H        1   0.000045(     3)      2   0.000030(     6)      3   0.017189(     8)     0
      5  H        1  -0.061969(     4)      2  -0.000151(     7)      3   0.000080(     9)     0
 -----------------------------------------------------------------------------------------------
 Internal  Forces:  Max     0.061968769 RMS     0.021436306
 Final forces over variables, Energy=-4.03823737D+01:
  7.99821934D-05-1.50785006D-04 4.50318883D-05 1.06202374D-04
  2.97011910D-05 1.71889369D-02 5.79166655D-05 4.82955309D-05
 -6.19687691D-02

 GradGradGradGradGradGradGradGradGradGradGradGradGradGradGradGradGradGrad
 Berny optimization.
 Search for a local minimum.
 Step number   4 out of a maximum of   50
 All quantities printed in internal units (Hartrees-Bohrs-Radians)
 Update second derivatives using D2CorN and points    2    3    4
 DE= -2.47D-06 DEPred=-2.38D-06 R= 1.04D+00
 TightC=F SS=  1.41D+00  RLast= 6.33D-03 DXNew= 9.1376D-01 1.8985D-02
 Trust test= 1.04D+00 RLast= 6.33D-03 DXMaxT set to 5.43D-01
 The second derivative matrix:
                         BABS1     AABS1      R3        A2        A3
           BABS1        0.15585
           AABS1       -0.06361   0.19399
           R3          -0.00050  -0.00025   0.36213
           A2          -0.02968   0.03036  -0.00000   0.33458
           A3          -0.00097   0.00036  -0.00000   0.16054   0.32109
           D3          -0.05943  -0.03030  -0.00000  -0.00046  -0.00137
           R2           0.00018   0.00009  -0.00000   0.00000   0.00000
           R1           0.00021   0.00013   0.00000   0.00000   0.00000
           RTS         -0.00826  -0.00269   0.00000  -0.00000   0.00000
                          D3        R2        R1        RTS
           D3           0.15369
           R2          -0.00000   0.36213
           R1           0.00000   0.00000   0.36213
           RTS          0.00000   0.00000   0.00000   0.04307
 ITU=  1  1  1  0
     Eigenvalues ---    0.10851   0.241331000.000001000.000001000.00000
     Eigenvalues --- 1000.000001000.000001000.000001000.00000
 RFO step:  Lambda=-1.14490401D-07 EMin= 1.08510058D-01
 Quartic linear search produced a step of  0.06202.
 Variable       Old X    -DE/DX   Delta X   Delta X   Delta X     New X
                                 (Linear)    (Quad)   (Total)
  BABS1       1.56837   0.00008  -0.00029   0.00053   0.00024   1.56862
  AABS1       1.57119  -0.00015  -0.00027  -0.00045  -0.00072   1.57047
    R3        2.03750   0.00005   0.00000   0.00000   0.00000   2.03750
    A2        2.09391   0.00011   0.00000   0.00000   0.00000   2.09391
    A3        2.09476   0.00003   0.00000   0.00000   0.00000   2.09476
    D3        3.13823   0.01719   0.00000   0.00000   0.00000   3.13823
    R2        2.03750   0.00006   0.00000   0.00000   0.00000   2.03750
    R1        2.03750   0.00005   0.00000   0.00000   0.00000   2.03750
   RTS        3.77945  -0.06197   0.00000   0.00000   0.00000   3.77945
         Item               Value     Threshold  Converged?
 Maximum Force            0.000151     0.000450     YES
 RMS     Force            0.000121     0.000300     YES
 Maximum Displacement     0.000718     0.001800     YES
 RMS     Displacement     0.000253     0.001200     YES
 Predicted change in Energy=-6.199406D-08
 Optimization completed.
    -- Stationary point found.
                       ----------------------------
                       !   Optimized Parameters   !
                       ! (Angstroms and Degrees)  !
 ----------------------                            ----------------------
 !      Name          Value   Derivative information (Atomic Units)     !
 ------------------------------------------------------------------------
 !      BABS1       89.8611   -DE/DX =    0.0001                        !
 !      AABS1       90.0224   -DE/DX =   -0.0002                        !
 !       R3          1.0782   -DE/DX =    0.0                           !
 !       A2        119.9721   -DE/DX =    0.0001                        !
 !       A3        120.0207   -DE/DX =    0.0                           !
 !       D3        179.8076   -DE/DX =    0.0172                        !
 !       R2          1.0782   -DE/DX =    0.0001                        !
 !       R1          1.0782   -DE/DX =    0.0                           !
 !       RTS         2.0      -DE/DX =   -0.062                         !
 ------------------------------------------------------------------------
 GradGradGradGradGradGradGradGradGradGradGradGradGradGradGradGradGradGrad

 ---------------------------------------------------------------------------------------------------
                            Z-MATRIX (ANGSTROMS AND DEGREES)
   CD    Cent   Atom    N1       Length/X        N2       Alpha/Y        N3        Beta/Z          J
 ---------------------------------------------------------------------------------------------------
      1      1  C 
      2      2  H        1   1.078200(     1)
      3      3  H        1   1.078200(     2)      2  119.972(     5)
      4      4  H        1   1.078200(     3)      2  120.021(     6)      3  179.808(     8)      0
      5      5  H        1   2.000000(     4)      2   90.022(     7)      3   89.861(     9)      0
 ---------------------------------------------------------------------------------------------------
                         Z-Matrix orientation:                         
 ---------------------------------------------------------------------
 Center     Atomic      Atomic             Coordinates (Angstroms)
 Number     Number       Type             X           Y           Z
 ---------------------------------------------------------------------
      1          6           0        0.000000    0.000000    0.000000
      2          1           0        0.000000    0.000000    1.078200
      3          1           0        0.934011    0.000000   -0.538645
      4          1           0       -0.933548   -0.003135   -0.539437
      5          1           0        0.004850   -1.999994   -0.000782
 ---------------------------------------------------------------------
                    Distance matrix (angstroms):
                    1          2          3          4          5
     1  C    0.000000
     2  H    1.078200   0.000000
     3  H    1.078200   1.867235   0.000000
     4  H    1.078200   1.867692   1.867562   0.000000
     5  H    2.000000   2.272488   2.269937   2.271164   0.000000
 Symmetry turned off by external request.
 Stoichiometry    CH4
 Framework group  C1[X(CH4)]
 Deg. of freedom     9
 Full point group                 C1      NOp   1
 Rotational constants (GHZ):    143.7849816     91.3228772     91.3058521

 **********************************************************************

            Population analysis using the SCF density.

 **********************************************************************

 Alpha  occ. eigenvalues --  -10.33672  -0.79492  -0.52463  -0.52455  -0.34191
 Alpha virt. eigenvalues --   -0.01047   0.03983   0.05050   0.05051   0.07858
 Alpha virt. eigenvalues --    0.11158   0.12555   0.12557   0.13726   0.19303
 Alpha virt. eigenvalues --    0.19307   0.21403   0.21409   0.28191   0.30754
 Alpha virt. eigenvalues --    0.31734   0.31737   0.32248   0.33437   0.33440
 Alpha virt. eigenvalues --    0.33875   0.37280   0.38378   0.38382   0.38455
 Alpha virt. eigenvalues --    0.39962   0.39966   0.45348   0.45349   0.59482
 Alpha virt. eigenvalues --    0.61816   0.67809   0.67826   0.70476   0.72729
 Alpha virt. eigenvalues --    0.72735   0.78925   0.78936   0.79976   0.81148
 Alpha virt. eigenvalues --    0.86193   0.86205   0.88074   0.88692   0.88698
 Alpha virt. eigenvalues --    0.94387   0.96413   0.96422   0.99227   0.99252
 Alpha virt. eigenvalues --    1.02817   1.05384   1.05390   1.10112   1.10127
 Alpha virt. eigenvalues --    1.12596   1.14912   1.14921   1.15587   1.32565
 Alpha virt. eigenvalues --    1.32625   1.33335   1.43176   1.43199   1.46786
 Alpha virt. eigenvalues --    1.49835   1.49954   1.49961   1.58796   1.58808
 Alpha virt. eigenvalues --    1.59089   1.64572   1.70745   1.78898   1.78908
 Alpha virt. eigenvalues --    1.95051   1.97878   1.97904   2.06326   2.06341
 Alpha virt. eigenvalues --    2.12489   2.79359   2.82669   2.82705   2.87067
 Alpha virt. eigenvalues --    2.99902   3.12454   3.12499   3.33816   3.33830
 Alpha virt. eigenvalues --    3.37502   3.39564   3.39571   3.41413   3.44602
 Alpha virt. eigenvalues --    3.44606   3.56197   3.69214   3.71179   3.71242
 Alpha virt. eigenvalues --    3.71257   3.81084   3.81085   3.90679   3.90711
 Alpha virt. eigenvalues --    3.96488   3.96496   4.11465   4.11477   4.13184
 Alpha virt. eigenvalues --    4.17957   4.18002   4.25460   4.50282   4.58992
 Alpha virt. eigenvalues --    4.59007   4.68056   4.68079   4.71161   4.77556
 Alpha virt. eigenvalues --    4.81854   5.03738   5.03794   5.12582   5.12605
 Alpha virt. eigenvalues --    5.18906   5.18952   5.39297   6.11408   6.22047
 Alpha virt. eigenvalues --    6.22084   6.38912  16.14786
  Beta  occ. eigenvalues --  -10.33456  -0.78564  -0.52219  -0.52211  -0.34843
  Beta virt. eigenvalues --   -0.00710   0.04125   0.05054   0.05055   0.07214
  Beta virt. eigenvalues --    0.11559   0.12604   0.12605   0.13859   0.19355
  Beta virt. eigenvalues --    0.19359   0.21475   0.21481   0.28269   0.30807
  Beta virt. eigenvalues --    0.31767   0.31770   0.32562   0.33474   0.33476
  Beta virt. eigenvalues --    0.33879   0.37386   0.38245   0.38400   0.38404
  Beta virt. eigenvalues --    0.40046   0.40050   0.45430   0.45430   0.59087
  Beta virt. eigenvalues --    0.61722   0.67865   0.67883   0.70895   0.72845
  Beta virt. eigenvalues --    0.72851   0.79134   0.79145   0.79975   0.81131
  Beta virt. eigenvalues --    0.86223   0.86235   0.88217   0.88463   0.88470
  Beta virt. eigenvalues --    0.94395   0.96420   0.96428   0.99026   0.99051
  Beta virt. eigenvalues --    1.02811   1.05369   1.05375   1.10084   1.10099
  Beta virt. eigenvalues --    1.12641   1.14907   1.14916   1.15626   1.32530
  Beta virt. eigenvalues --    1.32590   1.33330   1.43217   1.43239   1.46698
  Beta virt. eigenvalues --    1.49857   1.50091   1.50098   1.58969   1.58980
  Beta virt. eigenvalues --    1.59357   1.64387   1.71286   1.79018   1.79028
  Beta virt. eigenvalues --    1.95010   1.98241   1.98268   2.06418   2.06432
  Beta virt. eigenvalues --    2.12596   2.78806   2.83030   2.83065   2.87137
  Beta virt. eigenvalues --    3.00055   3.12755   3.12800   3.34471   3.34484
  Beta virt. eigenvalues --    3.38130   3.39996   3.40003   3.41484   3.45109
  Beta virt. eigenvalues --    3.45114   3.56590   3.69274   3.71127   3.71131
  Beta virt. eigenvalues --    3.71149   3.79076   3.79079   3.89266   3.89293
  Beta virt. eigenvalues --    3.95594   3.95598   4.10157   4.10165   4.13343
  Beta virt. eigenvalues --    4.17920   4.17961   4.24051   4.50188   4.59028
  Beta virt. eigenvalues --    4.59043   4.67937   4.67961   4.69453   4.77448
  Beta virt. eigenvalues --    4.82183   5.03815   5.03872   5.13113   5.13135
  Beta virt. eigenvalues --    5.19085   5.19131   5.39558   6.11584   6.22154
  Beta virt. eigenvalues --    6.22191   6.39100  16.15260
          Condensed to atoms (all electrons):
               1          2          3          4          5
     1  C    5.772043   0.340048   0.339850   0.339927   0.245499
     2  H    0.340048   0.269172   0.009175   0.009155   0.003613
     3  H    0.339850   0.009175   0.269087   0.009171   0.003560
     4  H    0.339927   0.009155   0.009171   0.269120   0.003598
     5  H    0.245499   0.003613   0.003560   0.003598   0.813387
          Atomic-Atomic Spin Densities.
               1          2          3          4          5
     1  C    0.218338   0.000900   0.000873   0.000878   0.000177
     2  H    0.000900  -0.007202   0.000056   0.000059   0.003344
     3  H    0.000873   0.000056  -0.007228   0.000055   0.003376
     4  H    0.000878   0.000059   0.000055  -0.007220   0.003362
     5  H    0.000177   0.003344   0.003376   0.003362  -0.222845
 Mulliken charges and spin densities:
               1          2
     1  C   -1.037367   0.221166
     2  H    0.368837  -0.002844
     3  H    0.369157  -0.002868
     4  H    0.369029  -0.002867
     5  H   -0.069656  -0.212587
 Sum of Mulliken charges =  -0.00000  -0.00000
 Mulliken charges and spin densities with hydrogens summed into heavy atoms:
               1          2
     1  C   -0.000000  -0.000000
 Electronic spatial extent (au):  <R**2>=             48.1714
 Charge=             -0.0000 electrons
 Dipole moment (field-independent basis, Debye):
    X=             -0.0024    Y=              1.1268    Z=              0.0000  Tot=              1.1268
 Quadrupole moment (field-independent basis, Debye-Ang):
   XX=             -8.6028   YY=            -11.6220   ZZ=             -8.6032
   XY=              0.0051   XZ=              0.0009   YZ=              0.0029
 Traceless Quadrupole moment (field-independent basis, Debye-Ang):
   XX=              1.0066   YY=             -2.0127   ZZ=              1.0061
   XY=              0.0051   XZ=              0.0009   YZ=              0.0029
 Octapole moment (field-independent basis, Debye-Ang**2):
  XXX=             -0.0260  YYY=             11.8290  ZZZ=              1.0612  XYY=             -0.0102
  XXY=              3.6746  XXZ=             -1.0573  XZZ=             -0.0099  YZZ=              3.6770
  YYZ=             -0.0004  XYZ=             -0.0017
 Hexadecapole moment (field-independent basis, Debye-Ang**3):
 XXXX=            -16.6993 YYYY=            -51.8184 ZZZZ=            -16.6992 XXXY=              0.0492
 XXXZ=             -0.0006 YYYX=              0.0349 YYYZ=             -0.0059 ZZZX=              0.0006
 ZZZY=             -0.0397 XXYY=            -12.5216 XXZZ=             -5.5666 YYZZ=            -12.5215
 XXYZ=              0.0324 YYXZ=             -0.0001 ZZXY=              0.0164
 N-N= 1.197014454366D+01 E-N=-1.165414450240D+02  KE= 3.986355914541D+01
                          Isotropic Fermi Contact Couplings
        Atom                 a.u.       MegaHertz       Gauss      10(-4) cm-1
     1  C(13)             -0.00501      -2.81820      -1.00561      -0.94005
     2  H(1)              -0.00356      -7.96458      -2.84196      -2.65670
     3  H(1)              -0.00357      -7.98270      -2.84842      -2.66274
     4  H(1)              -0.00357      -7.97667      -2.84627      -2.66073
     5  H(1)              -0.06309    -141.00400     -50.31373     -47.03387
 --------------------------------------------------------
       Center         ----  Spin Dipole Couplings  ----
                      3XX-RR        3YY-RR        3ZZ-RR
 --------------------------------------------------------
     1   Atom       -0.118291      0.236588     -0.118296
     2   Atom       -0.014061     -0.002020      0.016081
     3   Atom        0.008565     -0.002034     -0.006531
     4   Atom        0.008522     -0.002012     -0.006510
     5   Atom       -0.006580      0.013160     -0.006580
 --------------------------------------------------------
                        XY            XZ            YZ
 --------------------------------------------------------
     1   Atom       -0.000585     -0.000001     -0.000366
     2   Atom       -0.000017      0.000007     -0.002483
     3   Atom       -0.002162     -0.013044      0.001219
     4   Atom        0.002199      0.013054      0.001262
     5   Atom       -0.000051     -0.000000      0.000013
 --------------------------------------------------------


 ---------------------------------------------------------------------------------
              Anisotropic Spin Dipole Couplings in Principal Axis System
 ---------------------------------------------------------------------------------

       Atom             a.u.   MegaHertz   Gauss  10(-4) cm-1        Axes

              Baa    -0.1183   -15.874    -5.664    -5.295  0.3081  0.0015  0.9513
     1 C(13)  Bbb    -0.1183   -15.874    -5.664    -5.295  0.9513  0.0013 -0.3081
              Bcc     0.2366    31.748    11.328    10.590 -0.0016  1.0000 -0.0010
 
              Baa    -0.0141    -7.502    -2.677    -2.503  1.0000  0.0014 -0.0001
     2 H(1)   Bbb    -0.0024    -1.256    -0.448    -0.419 -0.0013  0.9910  0.1335
              Bcc     0.0164     8.758     3.125     2.922  0.0003 -0.1335  0.9910
 
              Baa    -0.0141    -7.498    -2.676    -2.501  0.4997  0.0020  0.8662
     3 H(1)   Bbb    -0.0024    -1.263    -0.451    -0.421  0.1144  0.9911 -0.0683
              Bcc     0.0164     8.762     3.126     2.923  0.8586 -0.1333 -0.4950
 
              Baa    -0.0141    -7.500    -2.676    -2.502 -0.5006  0.0007  0.8657
     4 H(1)   Bbb    -0.0024    -1.260    -0.450    -0.420 -0.1177  0.9907 -0.0688
              Bcc     0.0164     8.760     3.126     2.922  0.8577  0.1363  0.4958
 
              Baa    -0.0066    -3.511    -1.253    -1.171  0.4619  0.0006  0.8869
     5 H(1)   Bbb    -0.0066    -3.511    -1.253    -1.171  0.8869  0.0026 -0.4619
              Bcc     0.0132     7.021     2.505     2.342 -0.0026  1.0000  0.0007
 

 ---------------------------------------------------------------------------------


 Test job not archived.
 1\1\GINC-NODE-6-11\POpt\UwB97XD\Aug-CC-pVTZ\C1H4\CAVALLOTTI\03-Jun-202
 3\1\\# uwb97xd/aug-cc-pvtz opt=(noeig,intern,maxcyc=50) # int=ultrafin
 e nosym iop(7/33=1) guess=(mix,always)\\geom 0\\0,1\C\H,1,R1\H,1,R2,2,
 A2\H,1,R3,2,A3,3,D3,0\H,1,RTS,2,AABS1,3,BABS1,0\\BABS1=89.86107113\AAB
 S1=90.02240907\R3=1.0782\A2=119.9721\A3=120.0207\D3=179.8076\R2=1.0782
 \R1=1.0782\RTS=2.\\Version=EM64L-G09RevD.01\HF=-40.3823737\S2=0.043014
 \S2-1=0.\S2A=0.000033\RMSD=9.123e-09\RMSF=2.880e-02\Dipole=-0.0009281,
 0.4433268,0.0000101\Quadrupole=0.7483531,-1.4963666,0.7480135,0.003811
 7,0.0006728,0.0021695\PG=C01 [X(C1H4)]\\@


 This summer one third of the nation will be ill-housed
 ill-nourished and ill-clad. Only they call it a vacation.
 -- Jonas Salk
 Job cpu time:       0 days  0 hours  9 minutes  2.5 seconds.
 File lengths (MBytes):  RWF=     66 Int=      0 D2E=      0 Chk=      3 Scr=      1
 Normal termination of Gaussian 09 at Sat Jun  3 08:59:34 2023.
