 Entering Gaussian System, Link 0=g09
 Input=geom.com
 Output=geom.log
 Initial command:
 /software/cinetica/g09d1/g09d01/d01/build-node-6-2-59348/src/main/l1.exe "/scratch/cc/140682/Gau-236384.inp" -scrdir="/scratch/cc/140682/"
 Entering Link 1 = /software/cinetica/g09d1/g09d01/d01/build-node-6-2-59348/src/main/l1.exe PID=    236385.
  
 Copyright (c) 1988,1990,1992,1993,1995,1998,2003,2009,2013,
            Gaussian, Inc.  All Rights Reserved.
  
 This is part of the Gaussian(R) 09 program.  It is based on
 the Gaussian(R) 03 system (copyright 2003, Gaussian, Inc.),
 the Gaussian(R) 98 system (copyright 1998, Gaussian, Inc.),
 the Gaussian(R) 94 system (copyright 1995, Gaussian, Inc.),
 the Gaussian 92(TM) system (copyright 1992, Gaussian, Inc.),
 the Gaussian 90(TM) system (copyright 1990, Gaussian, Inc.),
 the Gaussian 88(TM) system (copyright 1988, Gaussian, Inc.),
 the Gaussian 86(TM) system (copyright 1986, Carnegie Mellon
 University), and the Gaussian 82(TM) system (copyright 1983,
 Carnegie Mellon University). Gaussian is a federally registered
 trademark of Gaussian, Inc.
  
 This software contains proprietary and confidential information,
 including trade secrets, belonging to Gaussian, Inc.
  
 This software is provided under written license and may be
 used, copied, transmitted, or stored only in accord with that
 written license.
  
 The following legend is applicable only to US Government
 contracts under FAR:
  
                    RESTRICTED RIGHTS LEGEND
  
 Use, reproduction and disclosure by the US Government is
 subject to restrictions as set forth in subparagraphs (a)
 and (c) of the Commercial Computer Software - Restricted
 Rights clause in FAR 52.227-19.
  
 Gaussian, Inc.
 340 Quinnipiac St., Bldg. 40, Wallingford CT 06492
  
  
 ---------------------------------------------------------------
 Warning -- This program may not be used in any manner that
 competes with the business of Gaussian, Inc. or will provide
 assistance to any competitor of Gaussian, Inc.  The licensee
 of this program is prohibited from giving any competitor of
 Gaussian, Inc. access to this program.  By using this program,
 the user acknowledges that Gaussian, Inc. is engaged in the
 business of creating and licensing software in the field of
 computational chemistry and represents and warrants to the
 licensee that it is not a competitor of Gaussian, Inc. and that
 it will not use this program in any manner prohibited above.
 ---------------------------------------------------------------
  

 Cite this work as:
 Gaussian 09, Revision D.01,
 M. J. Frisch, G. W. Trucks, H. B. Schlegel, G. E. Scuseria, 
 M. A. Robb, J. R. Cheeseman, G. Scalmani, V. Barone, B. Mennucci, 
 G. A. Petersson, H. Nakatsuji, M. Caricato, X. Li, H. P. Hratchian, 
 A. F. Izmaylov, J. Bloino, G. Zheng, J. L. Sonnenberg, M. Hada, 
 M. Ehara, K. Toyota, R. Fukuda, J. Hasegawa, M. Ishida, T. Nakajima, 
 Y. Honda, O. Kitao, H. Nakai, T. Vreven, J. A. Montgomery, Jr., 
 J. E. Peralta, F. Ogliaro, M. Bearpark, J. J. Heyd, E. Brothers, 
 K. N. Kudin, V. N. Staroverov, T. Keith, R. Kobayashi, J. Normand, 
 K. Raghavachari, A. Rendell, J. C. Burant, S. S. Iyengar, J. Tomasi, 
 M. Cossi, N. Rega, J. M. Millam, M. Klene, J. E. Knox, J. B. Cross, 
 V. Bakken, C. Adamo, J. Jaramillo, R. Gomperts, R. E. Stratmann, 
 O. Yazyev, A. J. Austin, R. Cammi, C. Pomelli, J. W. Ochterski, 
 R. L. Martin, K. Morokuma, V. G. Zakrzewski, G. A. Voth, 
 P. Salvador, J. J. Dannenberg, S. Dapprich, A. D. Daniels, 
 O. Farkas, J. B. Foresman, J. V. Ortiz, J. Cioslowski, 
 and D. J. Fox, Gaussian, Inc., Wallingford CT, 2013.
 
 ******************************************
 Gaussian 09:  EM64L-G09RevD.01 24-Apr-2013
                 3-Jun-2023 
 ******************************************
 %mem=400MW
 %chk=tmp
 %NProcShared= 32
 Will use up to   32 processors via shared memory.
 ----------------------------------------------------------------------
 # uwb97xd/aug-cc-pvtz opt=(noeig,intern,maxcyc=50) # int=ultrafine nos
 ym freq iop(7/33=1) guess=(mix,always)
 ----------------------------------------------------------------------
 1/6=50,10=7,11=1,14=-1,18=40,26=4,38=1/1,3;
 2/12=2,15=1,17=6,18=5,29=3,40=1/2;
 3/5=16,6=1,7=10,11=2,16=1,25=1,30=1,71=1,74=-58,75=-5,116=2/1,2,3;
 4/13=-1/1;
 5/5=2,38=5/2;
 6/7=2,8=2,9=2,10=2,28=1/1;
 7/29=1,30=1,33=1/1,2,3,16;
 1/6=50,10=7,11=1,14=-1,18=40,26=4/3(2);
 2/15=1,29=3/2;
 99//99;
 2/15=1,29=3/2;
 3/5=16,6=1,7=10,11=2,16=1,25=1,30=1,71=1,74=-58,75=-5,116=2/1,2,3;
 4/13=-1/1;
 5/5=2,38=5/2;
 7/30=1,33=1/1,2,3,16;
 1/6=50,11=1,14=-1,18=40,26=4/3(-5);
 2/15=1,29=3/2;
 6/7=2,8=2,9=2,10=2,19=2,28=1/1;
 99/9=1/99;
 ------
 geom 0
 ------
 Symbolic Z-matrix:
 Charge =  0 Multiplicity = 1
 C1
 H2                   C1   R1
 H3                   C1   R2       H2   A2
 H4                   C1   R3       H2   A3       H3   D3       0
 H21                  C1   BB       H2   ANG1     H3   DH1      0
       Variables:
  R1                    1.0821                   
  R2                    1.0821                   
  R3                    1.082                    
  A2                  117.029                    
  A3                  117.052                    
  D3                  213.5653                   
  DH1                 106.7192                   
  ANG1                100.0308                   
       Constants:
  BB                    2.                       
 

 GradGradGradGradGradGradGradGradGradGradGradGradGradGradGradGradGradGrad
 Berny optimization.
 Initialization pass.
                       ----------------------------
                       !    Initial Parameters    !
                       ! (Angstroms and Degrees)  !
 ----------------------                            ----------------------
 !      Name          Value   Derivative information (Atomic Units)     !
 ------------------------------------------------------------------------
 !       R1          1.0821   estimate D2E/DX2                          !
 !       R2          1.0821   estimate D2E/DX2                          !
 !       R3          1.082    estimate D2E/DX2                          !
 !       A2        117.029    estimate D2E/DX2                          !
 !       A3        117.052    estimate D2E/DX2                          !
 !       D3        213.5653   estimate D2E/DX2                          !
 !       DH1       106.7192   estimate D2E/DX2                          !
 !      ANG1       100.0308   estimate D2E/DX2                          !
 !       BB          2.0      Frozen                                    !
 ------------------------------------------------------------------------
 Trust Radius=3.00D-01 FncErr=1.00D-07 GrdErr=1.00D-06
 Number of steps in this run=     50 maximum allowed number of steps=    100.
 GradGradGradGradGradGradGradGradGradGradGradGradGradGradGradGradGradGrad

 ---------------------------------------------------------------------------------------------------
                            Z-MATRIX (ANGSTROMS AND DEGREES)
   CD    Cent   Atom    N1       Length/X        N2       Alpha/Y        N3        Beta/Z          J
 ---------------------------------------------------------------------------------------------------
      1      1  C 
      2      2  H        1   1.082100(     1)
      3      3  H        1   1.082100(     2)      2  117.029(     5)
      4      4  H        1   1.082000(     3)      2  117.052(     6)      3  213.565(     8)      0
      5      5  H        1   2.000000(     4)      2  100.031(     7)      3  106.719(     9)      0
 ---------------------------------------------------------------------------------------------------
                         Z-Matrix orientation:                         
 ---------------------------------------------------------------------
 Center     Atomic      Atomic             Coordinates (Angstroms)
 Number     Number       Type             X           Y           Z
 ---------------------------------------------------------------------
      1          6           0        0.000000    0.000000    0.000000
      2          1           0        0.000000    0.000000    1.082100
      3          1           0        0.963909    0.000000   -0.491751
      4          1           0       -0.802945    0.532775   -0.492092
      5          1           0       -0.566568   -1.886173   -0.348355
 ---------------------------------------------------------------------
                    Distance matrix (angstroms):
                    1          2          3          4          5
     1  C    0.000000
     2  H    1.082100   0.000000
     3  H    1.082100   1.845570   0.000000
     4  H    1.082000   1.845712   1.845433   0.000000
     5  H    2.000000   2.434102   2.433223   2.434716   0.000000
 Symmetry turned off by external request.
 Stoichiometry    CH4
 Framework group  C1[X(CH4)]
 Deg. of freedom     9
 Full point group                 C1      NOp   1
 Rotational constants (GHZ):    147.2213011     88.2872183     88.2779521
 Standard basis: Aug-CC-pVTZ (5D, 7F)
   138 basis functions,   180 primitive gaussians,   155 cartesian basis functions
     5 alpha electrons        5 beta electrons
       nuclear repulsion energy        11.9027192917 Hartrees.
 NAtoms=    5 NActive=    5 NUniq=    5 SFac= 1.00D+00 NAtFMM=   60 NAOKFM=F Big=F
 Integral buffers will be    131072 words long.
 Raffenetti 2 integral format.
 Two-electron integral symmetry is turned off.
 Nuclear repulsion after empirical dispersion term =       11.9019468190 Hartrees.
 One-electron integrals computed using PRISM.
 NBasis=   138 RedAO= T EigKep=  1.06D-04  NBF=   138
 NBsUse=   138 1.00D-06 EigRej= -1.00D+00 NBFU=   138
 ExpMin= 2.53D-02 ExpMax= 8.24D+03 ExpMxC= 2.81D+02 IAcc=3 IRadAn=         5 AccDes= 0.00D+00
 Harris functional with IExCor= 4639 and IRadAn=       5 diagonalized for initial guess.
 HarFok:  IExCor= 4639 AccDes= 0.00D+00 IRadAn=         5 IDoV= 1 UseB2=F ITyADJ=14
 ICtDFT=  3500011 ScaDFX=  1.000000  1.000000  1.000000  1.000000
 FoFCou: FMM=F IPFlag=           0 FMFlag=      100000 FMFlg1=           0
         NFxFlg=           0 DoJE=T BraDBF=F KetDBF=T FulRan=T
         wScrn=  0.000000 ICntrl=     500 IOpCl=  0 I1Cent=   200000004 NGrid=           0
         NMat0=    1 NMatS0=      1 NMatT0=    0 NMatD0=    1 NMtDS0=    0 NMtDT0=    0
 Symmetry not used in FoFCou.
 Mixing orbitals, IMix= 1 IMixAn=  0 NRI=1 NE=    5 Coef=  7.07106781D-01  7.07106781D-01
 Mixing orbitals, IMix= 1 IMixAn=  0 NRI=1 NE=    5 Coef= -7.07106781D-01  7.07106781D-01
 Initial guess <Sx>= 0.0000 <Sy>= 0.0000 <Sz>= 0.0000 <S**2>= 1.0000 S= 0.6180
 Keep R1 and R2 ints in memory in canonical form, NReq=186090023.
 Requested convergence on RMS density matrix=1.00D-08 within 128 cycles.
 Requested convergence on MAX density matrix=1.00D-06.
 Requested convergence on             energy=1.00D-06.
 No special actions if energy rises.
 SCF Done:  E(UwB97XD) =  -40.3880027732     A.U. after   21 cycles
            NFock= 21  Conv=0.32D-08     -V/T= 2.0143
 <Sx>= 0.0000 <Sy>= 0.0000 <Sz>= 0.0000 <S**2>= 0.0000 S= 0.0000
 <L.S>=  0.00000000000    
 Annihilation of the first spin contaminant:
 S**2 before annihilation     0.0000,   after    -0.0000

 **********************************************************************

            Population analysis using the SCF density.

 **********************************************************************

 Alpha  occ. eigenvalues --  -10.33665  -0.78839  -0.51611  -0.51604  -0.35270
 Alpha virt. eigenvalues --   -0.00667   0.04019   0.05059   0.05060   0.07485
 Alpha virt. eigenvalues --    0.11559   0.12607   0.12609   0.13806   0.19630
 Alpha virt. eigenvalues --    0.19634   0.20765   0.20766   0.28235   0.31099
 Alpha virt. eigenvalues --    0.31781   0.31783   0.32501   0.33129   0.33133
 Alpha virt. eigenvalues --    0.34291   0.37671   0.38189   0.38195   0.38974
 Alpha virt. eigenvalues --    0.41738   0.41752   0.45877   0.45879   0.58364
 Alpha virt. eigenvalues --    0.60388   0.60405   0.62655   0.71613   0.73821
 Alpha virt. eigenvalues --    0.73822   0.79389   0.81190   0.83475   0.83487
 Alpha virt. eigenvalues --    0.87709   0.87718   0.89970   0.90418   0.90425
 Alpha virt. eigenvalues --    0.95728   0.95740   0.95896   0.96467   0.96480
 Alpha virt. eigenvalues --    1.02703   1.06395   1.06400   1.10268   1.10789
 Alpha virt. eigenvalues --    1.10791   1.14382   1.14385   1.17821   1.29847
 Alpha virt. eigenvalues --    1.29879   1.32564   1.46435   1.46459   1.50014
 Alpha virt. eigenvalues --    1.50017   1.50697   1.51609   1.55144   1.55572
 Alpha virt. eigenvalues --    1.55587   1.60828   1.76476   1.76482   1.76564
 Alpha virt. eigenvalues --    1.89656   1.89762   1.89766   2.05484   2.05491
 Alpha virt. eigenvalues --    2.15314   2.76003   2.86041   2.91780   2.94114
 Alpha virt. eigenvalues --    2.94163   3.07207   3.07217   3.34017   3.35022
 Alpha virt. eigenvalues --    3.35026   3.35975   3.44648   3.44659   3.47134
 Alpha virt. eigenvalues --    3.47141   3.54113   3.69815   3.69826   3.69964
 Alpha virt. eigenvalues --    3.73771   3.80035   3.80039   3.88365   3.88386
 Alpha virt. eigenvalues --    3.98023   3.98049   4.04914   4.04924   4.13636
 Alpha virt. eigenvalues --    4.21294   4.21309   4.27113   4.48042   4.52726
 Alpha virt. eigenvalues --    4.52761   4.65179   4.65190   4.66875   4.68439
 Alpha virt. eigenvalues --    4.85145   4.97879   4.97902   5.08360   5.08369
 Alpha virt. eigenvalues --    5.35463   5.46619   5.46640   5.89163   5.99695
 Alpha virt. eigenvalues --    6.23946   6.23992  16.04359
  Beta  occ. eigenvalues --  -10.33665  -0.78839  -0.51611  -0.51604  -0.35270
  Beta virt. eigenvalues --   -0.00667   0.04019   0.05059   0.05060   0.07485
  Beta virt. eigenvalues --    0.11559   0.12607   0.12609   0.13806   0.19630
  Beta virt. eigenvalues --    0.19634   0.20765   0.20766   0.28235   0.31099
  Beta virt. eigenvalues --    0.31781   0.31783   0.32501   0.33129   0.33133
  Beta virt. eigenvalues --    0.34291   0.37671   0.38189   0.38195   0.38974
  Beta virt. eigenvalues --    0.41738   0.41752   0.45877   0.45879   0.58364
  Beta virt. eigenvalues --    0.60388   0.60405   0.62655   0.71613   0.73821
  Beta virt. eigenvalues --    0.73822   0.79389   0.81190   0.83475   0.83487
  Beta virt. eigenvalues --    0.87709   0.87718   0.89970   0.90418   0.90425
  Beta virt. eigenvalues --    0.95728   0.95740   0.95896   0.96467   0.96480
  Beta virt. eigenvalues --    1.02703   1.06395   1.06400   1.10268   1.10789
  Beta virt. eigenvalues --    1.10791   1.14382   1.14385   1.17821   1.29847
  Beta virt. eigenvalues --    1.29879   1.32564   1.46435   1.46459   1.50014
  Beta virt. eigenvalues --    1.50017   1.50697   1.51609   1.55144   1.55572
  Beta virt. eigenvalues --    1.55587   1.60828   1.76476   1.76482   1.76564
  Beta virt. eigenvalues --    1.89656   1.89762   1.89766   2.05484   2.05491
  Beta virt. eigenvalues --    2.15314   2.76003   2.86041   2.91780   2.94114
  Beta virt. eigenvalues --    2.94163   3.07207   3.07217   3.34017   3.35022
  Beta virt. eigenvalues --    3.35026   3.35975   3.44648   3.44659   3.47134
  Beta virt. eigenvalues --    3.47141   3.54113   3.69815   3.69826   3.69964
  Beta virt. eigenvalues --    3.73771   3.80035   3.80039   3.88365   3.88386
  Beta virt. eigenvalues --    3.98023   3.98049   4.04914   4.04924   4.13636
  Beta virt. eigenvalues --    4.21294   4.21309   4.27113   4.48042   4.52726
  Beta virt. eigenvalues --    4.52761   4.65179   4.65190   4.66875   4.68439
  Beta virt. eigenvalues --    4.85145   4.97879   4.97902   5.08360   5.08369
  Beta virt. eigenvalues --    5.35463   5.46619   5.46640   5.89163   5.99695
  Beta virt. eigenvalues --    6.23946   6.23992  16.04359
          Condensed to atoms (all electrons):
               1          2          3          4          5
     1  C    5.623281   0.356239   0.356104   0.356404   0.275653
     2  H    0.356239   0.284121   0.011770   0.011755   0.000637
     3  H    0.356104   0.011770   0.284056   0.011770   0.000598
     4  H    0.356404   0.011755   0.011770   0.284194   0.000668
     5  H    0.275653   0.000637   0.000598   0.000668   0.761150
          Atomic-Atomic Spin Densities.
               1          2          3          4          5
     1  C   -0.000000  -0.000000  -0.000000  -0.000000   0.000000
     2  H   -0.000000   0.000000   0.000000   0.000000  -0.000000
     3  H   -0.000000   0.000000   0.000000   0.000000  -0.000000
     4  H   -0.000000   0.000000   0.000000   0.000000  -0.000000
     5  H    0.000000  -0.000000  -0.000000  -0.000000   0.000000
 Mulliken charges and spin densities:
               1          2
     1  C   -0.967681  -0.000000
     2  H    0.335477   0.000000
     3  H    0.335701   0.000000
     4  H    0.335209   0.000000
     5  H   -0.038705   0.000000
 Sum of Mulliken charges =  -0.00000   0.00000
 Mulliken charges and spin densities with hydrogens summed into heavy atoms:
               1          2
     1  C   -0.000000   0.000000
 Electronic spatial extent (au):  <R**2>=             47.8354
 Charge=              0.0000 electrons
 Dipole moment (field-independent basis, Debye):
    X=              0.3549    Y=              1.1788    Z=              0.2176  Tot=              1.2502
 Quadrupole moment (field-independent basis, Debye-Ang):
   XX=             -8.8913   YY=            -10.5798   ZZ=             -8.7846
   XY=             -0.5608   XZ=             -0.1032   YZ=             -0.3434
 Traceless Quadrupole moment (field-independent basis, Debye-Ang):
   XX=              0.5273   YY=             -1.1612   ZZ=              0.6340
   XY=             -0.5608   XZ=             -0.1032   YZ=             -0.3434
 Octapole moment (field-independent basis, Debye-Ang**2):
  XXX=              3.1116  YYY=              8.4394  ZZZ=              2.7702  XYY=              0.4227
  XXY=              3.3247  XXZ=             -0.2770  XZZ=              0.9433  YZZ=              3.1420
  YYZ=              0.2601  XYZ=              0.1788
 Hexadecapole moment (field-independent basis, Debye-Ang**3):
 XXXX=            -19.8750 YYYY=            -44.1652 ZZZZ=            -17.8562 XXXY=             -4.9471
 XXXZ=             -1.1074 YYYX=             -3.0750 YYYZ=             -1.8903 ZZZX=             -0.8862
 ZZZY=             -2.9518 XXYY=            -11.2060 XXZZ=             -6.3950 YYZZ=            -11.4158
 XXYZ=             -1.1087 YYXZ=              0.2061 ZZXY=             -1.6585
 N-N= 1.190194681898D+01 E-N=-1.163900812524D+02  KE= 3.981806019344D+01
                          Isotropic Fermi Contact Couplings
        Atom                 a.u.       MegaHertz       Gauss      10(-4) cm-1
     1  C(13)             -0.00000      -0.00001      -0.00000      -0.00000
     2  H(1)               0.00000       0.00001       0.00000       0.00000
     3  H(1)               0.00000       0.00001       0.00000       0.00000
     4  H(1)               0.00000       0.00001       0.00000       0.00000
     5  H(1)               0.00000       0.00015       0.00005       0.00005
 --------------------------------------------------------
       Center         ----  Spin Dipole Couplings  ----
                      3XX-RR        3YY-RR        3ZZ-RR
 --------------------------------------------------------
     1   Atom        0.000000     -0.000000      0.000000
     2   Atom        0.000000      0.000000     -0.000000
     3   Atom       -0.000000      0.000000      0.000000
     4   Atom       -0.000000     -0.000000      0.000000
     5   Atom        0.000000     -0.000000      0.000000
 --------------------------------------------------------
                        XY            XZ            YZ
 --------------------------------------------------------
     1   Atom       -0.000000     -0.000000     -0.000000
     2   Atom       -0.000000      0.000000      0.000000
     3   Atom        0.000000      0.000000     -0.000000
     4   Atom        0.000000     -0.000000      0.000000
     5   Atom       -0.000000     -0.000000     -0.000000
 --------------------------------------------------------


 ---------------------------------------------------------------------------------
              Anisotropic Spin Dipole Couplings in Principal Axis System
 ---------------------------------------------------------------------------------

       Atom             a.u.   MegaHertz   Gauss  10(-4) cm-1        Axes

              Baa    -0.0000    -0.000    -0.000    -0.000  0.2849  0.9425  0.1746
     1 C(13)  Bbb     0.0000     0.000     0.000     0.000  0.8634 -0.3315  0.3803
              Bcc     0.0000     0.000     0.000     0.000 -0.4163 -0.0424  0.9082
 
              Baa    -0.0000    -0.000    -0.000    -0.000 -0.0370 -0.1232  0.9917
     2 H(1)   Bbb     0.0000     0.000     0.000     0.000  0.2873  0.9492  0.1286
              Bcc     0.0000     0.000     0.000     0.000  0.9571 -0.2897 -0.0003
 
              Baa    -0.0000    -0.000    -0.000    -0.000  0.8666 -0.1229 -0.4836
     3 H(1)   Bbb     0.0000     0.000     0.000     0.000  0.2448  0.9492  0.1975
              Bcc     0.0000     0.000     0.000     0.000  0.4348 -0.2896  0.8527
 
              Baa    -0.0000    -0.000    -0.000    -0.000  0.7888 -0.3794  0.4835
     4 H(1)   Bbb     0.0000     0.000     0.000     0.000  0.3236  0.9252  0.1981
              Bcc     0.0000     0.000     0.000     0.000 -0.5225  0.0002  0.8526
 
              Baa    -0.0000    -0.000    -0.000    -0.000  0.2831  0.9432  0.1742
     5 H(1)   Bbb     0.0000     0.000     0.000     0.000 -0.4821 -0.0171  0.8760
              Bcc     0.0000     0.000     0.000     0.000  0.8292 -0.3319  0.4498
 

 ---------------------------------------------------------------------------------

 DipInt: DoE/N= T T RetVal/Mat= T F Init=T NMatP=  1 IDeriv=0 Min/MaxMlt=  1  1
 Entering OneElI...
 Multipole integrals L=1 to 1 MinM= 0 MaxM= 0.
 Requested accuracy = 0.1000D-12
 PrsmSu:  NPrtUS=   1 ThrOK=F IAlg=1 NPAlg=1 LenDen=           0.
 Prism:   IPart=     0 DynPar=F LinDyn=F Incr=          12.
 PRISM was handed   419323234 working-precision words and  1275 shell-pairs
 IPart=  0 NShTot=        1275 NBatch=          37 AvBLen=        34.5
 PrSmSu:  NxtVal=             13.
 Entering OneElI...
 Calculate overlap and kinetic energy integrals
    NBasis = 155  MinDer = 1  MaxDer = 1
 Requested accuracy = 0.1000D-12
 PrsmSu:  NPrtUS=  32 ThrOK=T IAlg=1 NPAlg=1 LenDen=           0.
 Prism:   IPart=     0 DynPar=F LinDyn=F Incr=           1.
 PRISM was handed    13082544 working-precision words and  1275 shell-pairs
 PRISM was handed    13082544 working-precision words and  1275 shell-pairs
 PRISM was handed    13082544 working-precision words and  1275 shell-pairs
 PRISM was handed    13082544 working-precision words and  1275 shell-pairs
 PRISM was handed    13082544 working-precision words and  1275 shell-pairs
 PRISM was handed    13082544 working-precision words and  1275 shell-pairs
 PRISM was handed    13082544 working-precision words and  1275 shell-pairs
 PRISM was handed    13082544 working-precision words and  1275 shell-pairs
 PRISM was handed    13082544 working-precision words and  1275 shell-pairs
 PRISM was handed    13082544 working-precision words and  1275 shell-pairs
 PRISM was handed    13082544 working-precision words and  1275 shell-pairs
 PRISM was handed    13082544 working-precision words and  1275 shell-pairs
 PRISM was handed    13082544 working-precision words and  1275 shell-pairs
 PRISM was handed    13082544 working-precision words and  1275 shell-pairs
 PRISM was handed    13082544 working-precision words and  1275 shell-pairs
 PRISM was handed    13082544 working-precision words and  1275 shell-pairs
 PRISM was handed    13082544 working-precision words and  1275 shell-pairs
 PRISM was handed    13082544 working-precision words and  1275 shell-pairs
 PRISM was handed    13082544 working-precision words and  1275 shell-pairs
 PRISM was handed    13082544 working-precision words and  1275 shell-pairs
 PRISM was handed    13082544 working-precision words and  1275 shell-pairs
 PRISM was handed    13082544 working-precision words and  1275 shell-pairs
 PRISM was handed    13082544 working-precision words and  1275 shell-pairs
 PRISM was handed    13082544 working-precision words and  1275 shell-pairs
 PRISM was handed    13082544 working-precision words and  1275 shell-pairs
 PRISM was handed    13082544 working-precision words and  1275 shell-pairs
 PRISM was handed    13082544 working-precision words and  1275 shell-pairs
 PRISM was handed    13082544 working-precision words and  1275 shell-pairs
 PRISM was handed    13082544 working-precision words and  1275 shell-pairs
 PRISM was handed    13082544 working-precision words and  1275 shell-pairs
 PRISM was handed    13082544 working-precision words and  1275 shell-pairs
 PRISM was handed    13082544 working-precision words and  1275 shell-pairs
 IPart=  0 NShTot=          68 NBatch=          39 AvBLen=         1.7
 IPart=  7 NShTot=          46 NBatch=          21 AvBLen=         2.2
 IPart= 22 NShTot=          34 NBatch=          11 AvBLen=         3.1
 IPart=  4 NShTot=          48 NBatch=          21 AvBLen=         2.3
 IPart= 30 NShTot=          29 NBatch=           9 AvBLen=         3.2
 IPart=  6 NShTot=          46 NBatch=          21 AvBLen=         2.2
 IPart= 18 NShTot=          35 NBatch=          12 AvBLen=         2.9
 IPart= 21 NShTot=          35 NBatch=          12 AvBLen=         2.9
 IPart= 23 NShTot=          34 NBatch=          11 AvBLen=         3.1
 IPart= 12 NShTot=          40 NBatch=          17 AvBLen=         2.4
 IPart= 10 NShTot=          45 NBatch=          20 AvBLen=         2.3
 IPart= 27 NShTot=          32 NBatch=          11 AvBLen=         2.9
 IPart=  3 NShTot=          49 NBatch=          22 AvBLen=         2.2
 IPart= 16 NShTot=          36 NBatch=          13 AvBLen=         2.8
 IPart= 14 NShTot=          40 NBatch=          17 AvBLen=         2.4
 IPart=  8 NShTot=          45 NBatch=          20 AvBLen=         2.3
 IPart= 25 NShTot=          32 NBatch=          11 AvBLen=         2.9
 IPart= 19 NShTot=          35 NBatch=          12 AvBLen=         2.9
 IPart=  1 NShTot=          58 NBatch=          30 AvBLen=         1.9
 IPart= 11 NShTot=          41 NBatch=          17 AvBLen=         2.4
 IPart= 13 NShTot=          40 NBatch=          17 AvBLen=         2.4
 IPart= 26 NShTot=          32 NBatch=          11 AvBLen=         2.9
 IPart= 15 NShTot=          36 NBatch=          13 AvBLen=         2.8
 IPart= 20 NShTot=          35 NBatch=          12 AvBLen=         2.9
 IPart=  9 NShTot=          45 NBatch=          20 AvBLen=         2.3
 IPart= 29 NShTot=          31 NBatch=          11 AvBLen=         2.8
 IPart= 31 NShTot=          29 NBatch=           9 AvBLen=         3.2
 IPart= 17 NShTot=          36 NBatch=          13 AvBLen=         2.8
 IPart= 28 NShTot=          31 NBatch=          11 AvBLen=         2.8
 IPart= 24 NShTot=          32 NBatch=          11 AvBLen=         2.9
 IPart=  5 NShTot=          46 NBatch=          21 AvBLen=         2.2
 IPart=  2 NShTot=          54 NBatch=          27 AvBLen=         2.0
 PrSmSu:  NxtVal=             33.
 Entering OneElI...
 Calculate potential energy integrals
    NBasis = 155  MinDer = 1  MaxDer = 1
 Requested accuracy = 0.1000D-12
 PrsmSu:  NPrtUS=  32 ThrOK=T IAlg=1 NPAlg=1 LenDen=           0.
 Prism:   IPart=     0 DynPar=F LinDyn=F Incr=           1.
 PRISM was handed    13083582 working-precision words and  1275 shell-pairs
 PRISM was handed    13083582 working-precision words and  1275 shell-pairs
 PRISM was handed    13083582 working-precision words and  1275 shell-pairs
 PRISM was handed    13083582 working-precision words and  1275 shell-pairs
 PRISM was handed    13083582 working-precision words and  1275 shell-pairs
 PRISM was handed    13083582 working-precision words and  1275 shell-pairs
 PRISM was handed    13083582 working-precision words and  1275 shell-pairs
 PRISM was handed    13083582 working-precision words and  1275 shell-pairs
 PRISM was handed    13083582 working-precision words and  1275 shell-pairs
 PRISM was handed    13083582 working-precision words and  1275 shell-pairs
 PRISM was handed    13083582 working-precision words and  1275 shell-pairs
 PRISM was handed    13083582 working-precision words and  1275 shell-pairs
 PRISM was handed    13083582 working-precision words and  1275 shell-pairs
 PRISM was handed    13083582 working-precision words and  1275 shell-pairs
 PRISM was handed    13083582 working-precision words and  1275 shell-pairs
 PRISM was handed    13083582 working-precision words and  1275 shell-pairs
 PRISM was handed    13083582 working-precision words and  1275 shell-pairs
 PRISM was handed    13083582 working-precision words and  1275 shell-pairs
 PRISM was handed    13083582 working-precision words and  1275 shell-pairs
 PRISM was handed    13083582 working-precision words and  1275 shell-pairs
 PRISM was handed    13083582 working-precision words and  1275 shell-pairs
 PRISM was handed    13083582 working-precision words and  1275 shell-pairs
 PRISM was handed    13083582 working-precision words and  1275 shell-pairs
 PRISM was handed    13083582 working-precision words and  1275 shell-pairs
 PRISM was handed    13083582 working-precision words and  1275 shell-pairs
 PRISM was handed    13083582 working-precision words and  1275 shell-pairs
 PRISM was handed    13083582 working-precision words and  1275 shell-pairs
 PRISM was handed    13083582 working-precision words and  1275 shell-pairs
 PRISM was handed    13083582 working-precision words and  1275 shell-pairs
 PRISM was handed    13083582 working-precision words and  1275 shell-pairs
 PRISM was handed    13083582 working-precision words and  1275 shell-pairs
 PRISM was handed    13083582 working-precision words and  1275 shell-pairs
 IPart= 15 NShTot=         180 NBatch=          36 AvBLen=         5.0
 IPart= 29 NShTot=         155 NBatch=          31 AvBLen=         5.0
 IPart= 11 NShTot=         205 NBatch=          41 AvBLen=         5.0
 IPart= 24 NShTot=         160 NBatch=          32 AvBLen=         5.0
 IPart=  5 NShTot=         235 NBatch=          47 AvBLen=         5.0
 IPart= 31 NShTot=         145 NBatch=          29 AvBLen=         5.0
 IPart= 22 NShTot=         170 NBatch=          34 AvBLen=         5.0
 IPart=  9 NShTot=         220 NBatch=          44 AvBLen=         5.0
 IPart= 17 NShTot=         175 NBatch=          35 AvBLen=         5.0
 IPart= 13 NShTot=         200 NBatch=          40 AvBLen=         5.0
 IPart= 20 NShTot=         175 NBatch=          35 AvBLen=         5.0
 IPart= 23 NShTot=         170 NBatch=          34 AvBLen=         5.0
 IPart=  3 NShTot=         255 NBatch=          51 AvBLen=         5.0
 IPart=  7 NShTot=         225 NBatch=          45 AvBLen=         5.0
 IPart= 27 NShTot=         160 NBatch=          32 AvBLen=         5.0
 IPart= 26 NShTot=         160 NBatch=          32 AvBLen=         5.0
 IPart= 25 NShTot=         160 NBatch=          32 AvBLen=         5.0
 IPart= 28 NShTot=         155 NBatch=          31 AvBLen=         5.0
 IPart= 12 NShTot=         200 NBatch=          40 AvBLen=         5.0
 IPart= 19 NShTot=         175 NBatch=          35 AvBLen=         5.0
 IPart=  8 NShTot=         220 NBatch=          44 AvBLen=         5.0
 IPart= 21 NShTot=         175 NBatch=          35 AvBLen=         5.0
 IPart= 30 NShTot=         145 NBatch=          29 AvBLen=         5.0
 IPart= 16 NShTot=         175 NBatch=          35 AvBLen=         5.0
 IPart=  1 NShTot=         295 NBatch=          59 AvBLen=         5.0
 IPart=  0 NShTot=         340 NBatch=          68 AvBLen=         5.0
 IPart= 14 NShTot=         200 NBatch=          40 AvBLen=         5.0
 IPart= 18 NShTot=         175 NBatch=          35 AvBLen=         5.0
 IPart=  2 NShTot=         275 NBatch=          55 AvBLen=         5.0
 IPart= 10 NShTot=         220 NBatch=          44 AvBLen=         5.0
 IPart=  4 NShTot=         250 NBatch=          50 AvBLen=         5.0
 IPart=  6 NShTot=         225 NBatch=          45 AvBLen=         5.0
 PrSmSu:  NxtVal=             33.
 l701 out
 I=    0 X=   1.396224554590D-01 Y=   4.637914878553D-01 Z=   8.562827694919D-02
 I=    1 X=   1.217368094405D-02 Y=   4.484979372041D-02 Z=   8.876853626287D-03
 I=    2 X=   3.053738138596D-03 Y=   1.065502493416D-02 Z=   2.453884446453D+00
 I=    3 X=   2.186854255211D+00 Y=   1.035589896767D-02 Z=  -1.112302925513D+00
 I=    4 X=  -1.816654915303D+00 Y=   1.218406480536D+00 Z=  -1.113266053480D+00
 I=    5 X=  -3.854267589910D-01 Y=  -1.284267198158D+00 Z=  -2.371923210861D-01
 ICntrl=      2127.
 Calling FoFJK, ICntrl=      2127 FMM=F ISym2X=0 I1Cent= 0 IOpClX= 1 NMat=1 NMatS=1 NMatT=0.
 FoFJK:  IHMeth= 1 ICntrl=    2127 DoSepK=T KAlg= 0 I1Cent=   0 FoldK=F
 IRaf=         1 NMat=   1 IRICut=       1 DoRegI=T DoRafI=F ISym2E= 0.
 FoFCou: FMM=F IPFlag=           0 FMFlag=      100000 FMFlg1=         800
         NFxFlg=           0 DoJE=F BraDBF=F KetDBF=F FulRan=T
         wScrn=  0.000000 ICntrl=    2527 IOpCl=  0 I1Cent=           0 NGrid=           0
         NMat0=    1 NMatS0=      1 NMatT0=    0 NMatD0=    1 NMtDS0=    0 NMtDT0=    0
 Symmetry not used in FoFCou.
 FoFCou:  KetSym=F NOpSet=  1 NOpAb=1 NOp=  1.
 FoFCou:  CnvScl= 1.00D+00 Thresh= 1.00D-10 IAcrcy=      10.
 PrismS was handed   419298092 working-precision words and  1275 shell-pairs
 FoFCou: LinMIO=F DoNuc=F BraDBF=F KetDBF=F HaveP=T PDBF=F HaveZ=T HaveW=F
         NIJTC =      10 NIJTAt=       0 NIJTCD=       0 NIJTT =      10
         IJTBeg=       1 IJTEnd=      10 KLTBeg=       1 KLTEnd=      10
         IPTBeg=       1 IPTEnd=      10 IPTBCv=       1 IPTECv=      10
         IZTBeg=       1 IZTEnd=      10 IZTBCv=       1 IZTECv=      10
         IWTBeg=      11 IWTEnd=      10 IWTBCv=      11 IWTECv=      10
         INTBeg=       1 INTEnd=       0 IFTBCv=       1 IFTECv=      10
 NCel replicated for PrismC:     1
 CoulSu:  IncDef=  1024 NBBP=         813450 NTPThr=   100 NPartT=   32 Incr=         254 LDynOK=F.
 CoulSu:  NPrtUS=  32 ThrOK=T IAlg=1 NPAlg=1 LenDen=           0 LWGrdD=           0 DoCopy=F.
 Enter PrismC: JobTyp=21 DoJE=F Cont=F.
 Enter PrismC: JobTyp=21 DoJE=F Cont=F.
 PrismC:  IPart=     0 DynPar=T LinDyn=F Incr=         254 UseFst=F UseS4=T IGathr=2.
 PrismC was handed    13082692 working-precision words and  1275 shell-pairs
 Enter PrismC: JobTyp=21 DoJE=F Cont=F.
 Enter PrismC: JobTyp=21 DoJE=F Cont=F.
 Enter PrismC: JobTyp=21 DoJE=F Cont=F.
 Enter PrismC: JobTyp=21 DoJE=F Cont=F.
 Enter PrismC: JobTyp=21 DoJE=F Cont=F.
 Enter PrismC: JobTyp=21 DoJE=F Cont=F.
 Enter PrismC: JobTyp=21 DoJE=F Cont=F.
 Enter PrismC: JobTyp=21 DoJE=F Cont=F.
 Enter PrismC: JobTyp=21 DoJE=F Cont=F.
 Enter PrismC: JobTyp=21 DoJE=F Cont=F.
 Enter PrismC: JobTyp=21 DoJE=F Cont=F.
 Enter PrismC: JobTyp=21 DoJE=F Cont=F.
 Enter PrismC: JobTyp=21 DoJE=F Cont=F.
 Enter PrismC: JobTyp=21 DoJE=F Cont=F.
 Enter PrismC: JobTyp=21 DoJE=F Cont=F.
 Enter PrismC: JobTyp=21 DoJE=F Cont=F.
 Enter PrismC: JobTyp=21 DoJE=F Cont=F.
 Enter PrismC: JobTyp=21 DoJE=F Cont=F.
 Enter PrismC: JobTyp=21 DoJE=F Cont=F.
 Enter PrismC: JobTyp=21 DoJE=F Cont=F.
 Enter PrismC: JobTyp=21 DoJE=F Cont=F.
 PrismC was handed    13082692 working-precision words and  1275 shell-pairs
 Enter PrismC: JobTyp=21 DoJE=F Cont=F.
 PrismC was handed    13082692 working-precision words and  1275 shell-pairs
 Enter PrismC: JobTyp=21 DoJE=F Cont=F.
 PrismC was handed    13082692 working-precision words and  1275 shell-pairs
 Enter PrismC: JobTyp=21 DoJE=F Cont=F.
 PrismC was handed    13082692 working-precision words and  1275 shell-pairs
 Enter PrismC: JobTyp=21 DoJE=F Cont=F.
 PrismC was handed    13082692 working-precision words and  1275 shell-pairs
 Enter PrismC: JobTyp=21 DoJE=F Cont=F.
 PrismC was handed    13082692 working-precision words and  1275 shell-pairs
 Enter PrismC: JobTyp=21 DoJE=F Cont=F.
 PrismC was handed    13082692 working-precision words and  1275 shell-pairs
 Enter PrismC: JobTyp=21 DoJE=F Cont=F.
 PrismC was handed    13082692 working-precision words and  1275 shell-pairs
 Enter PrismC: JobTyp=21 DoJE=F Cont=F.
 PrismC was handed    13082692 working-precision words and  1275 shell-pairs
 PrismC was handed    13082692 working-precision words and  1275 shell-pairs
 Enter PrismC: JobTyp=21 DoJE=F Cont=F.
 PrismC was handed    13082692 working-precision words and  1275 shell-pairs
 PrismC was handed    13082692 working-precision words and  1275 shell-pairs
 PrismC was handed    13082692 working-precision words and  1275 shell-pairs
 PrismC was handed    13082692 working-precision words and  1275 shell-pairs
 PrismC was handed    13082692 working-precision words and  1275 shell-pairs
 PrismC was handed    13082692 working-precision words and  1275 shell-pairs
 PrismC was handed    13082692 working-precision words and  1275 shell-pairs
 PrismC was handed    13082692 working-precision words and  1275 shell-pairs
 PrismC was handed    13082692 working-precision words and  1275 shell-pairs
 PrismC was handed    13082692 working-precision words and  1275 shell-pairs
 PrismC was handed    13082692 working-precision words and  1275 shell-pairs
 PrismC was handed    13082692 working-precision words and  1275 shell-pairs
 PrismC was handed    13082692 working-precision words and  1275 shell-pairs
 PrismC was handed    13082692 working-precision words and  1275 shell-pairs
 PrismC was handed    13082692 working-precision words and  1275 shell-pairs
 PrismC was handed    13082692 working-precision words and  1275 shell-pairs
 PrismC was handed    13082692 working-precision words and  1275 shell-pairs
 PrismC was handed    13082692 working-precision words and  1275 shell-pairs
 PrismC was handed    13082692 working-precision words and  1275 shell-pairs
 PrismC was handed    13082692 working-precision words and  1275 shell-pairs
 PrismC was handed    13082692 working-precision words and  1275 shell-pairs
 IPart= 20 NShTot=       24509 NShNF=       24509 NShFF=           0 NBatch=         218 AvBLen=       112.4
 IPart=  0 NShTot=       25428 NShNF=       25428 NShFF=           0 NBatch=         216 AvBLen=       117.7
 IPart=  8 NShTot=       28597 NShNF=       28597 NShFF=           0 NBatch=         249 AvBLen=       114.8
 IPart= 11 NShTot=       26847 NShNF=       26847 NShFF=           0 NBatch=         258 AvBLen=       104.1
 IPart= 23 NShTot=       25319 NShNF=       25319 NShFF=           0 NBatch=         258 AvBLen=        98.1
 IPart=  7 NShTot=       26244 NShNF=       26244 NShFF=           0 NBatch=         274 AvBLen=        95.8
 IPart= 27 NShTot=       25746 NShNF=       25746 NShFF=           0 NBatch=         239 AvBLen=       107.7
 IPart= 28 NShTot=       26839 NShNF=       26839 NShFF=           0 NBatch=         257 AvBLen=       104.4
 IPart= 21 NShTot=       26424 NShNF=       26424 NShFF=           0 NBatch=         262 AvBLen=       100.9
 IPart= 24 NShTot=       24160 NShNF=       24160 NShFF=           0 NBatch=         237 AvBLen=       101.9
 IPart= 26 NShTot=       25728 NShNF=       25728 NShFF=           0 NBatch=         266 AvBLen=        96.7
 IPart= 12 NShTot=       21663 NShNF=       21663 NShFF=           0 NBatch=         263 AvBLen=        82.4
 IPart=  2 NShTot=       25344 NShNF=       25344 NShFF=           0 NBatch=         266 AvBLen=        95.3
 IPart= 31 NShTot=       25278 NShNF=       25278 NShFF=           0 NBatch=         255 AvBLen=        99.1
 IPart=  9 NShTot=       23474 NShNF=       23474 NShFF=           0 NBatch=         244 AvBLen=        96.2
 IPart= 25 NShTot=       23574 NShNF=       23574 NShFF=           0 NBatch=         270 AvBLen=        87.3
 IPart= 14 NShTot=       24369 NShNF=       24369 NShFF=           0 NBatch=         247 AvBLen=        98.7
 IPart= 17 NShTot=       26235 NShNF=       26235 NShFF=           0 NBatch=         270 AvBLen=        97.2
 IPart=  5 NShTot=       27531 NShNF=       27531 NShFF=           0 NBatch=         261 AvBLen=       105.5
 IPart=  4 NShTot=       28373 NShNF=       28373 NShFF=           0 NBatch=         265 AvBLen=       107.1
 IPart= 19 NShTot=       24172 NShNF=       24172 NShFF=           0 NBatch=         259 AvBLen=        93.3
 IPart= 10 NShTot=       26750 NShNF=       26750 NShFF=           0 NBatch=         257 AvBLen=       104.1
 IPart= 13 NShTot=       26127 NShNF=       26127 NShFF=           0 NBatch=         195 AvBLen=       134.0
 IPart=  3 NShTot=       23574 NShNF=       23574 NShFF=           0 NBatch=         262 AvBLen=        90.0
 IPart= 18 NShTot=       23755 NShNF=       23755 NShFF=           0 NBatch=         256 AvBLen=        92.8
 IPart= 22 NShTot=       24576 NShNF=       24576 NShFF=           0 NBatch=         263 AvBLen=        93.4
 IPart= 16 NShTot=       25092 NShNF=       25092 NShFF=           0 NBatch=         263 AvBLen=        95.4
 IPart= 15 NShTot=       23945 NShNF=       23945 NShFF=           0 NBatch=         252 AvBLen=        95.0
 IPart=  6 NShTot=       26439 NShNF=       26439 NShFF=           0 NBatch=         250 AvBLen=       105.8
 IPart=  1 NShTot=       28584 NShNF=       28584 NShFF=           0 NBatch=         266 AvBLen=       107.5
 IPart= 29 NShTot=       22567 NShNF=       22567 NShFF=           0 NBatch=         268 AvBLen=        84.2
 IPart= 30 NShTot=       25182 NShNF=       25182 NShFF=           0 NBatch=         272 AvBLen=        92.6
 CoulSu:  NxtVal=         897637.
 FoFCou: FMM=F IPFlag=           0 FMFlag=      100000 FMFlg1=         800
         NFxFlg=           0 DoJE=F BraDBF=F KetDBF=F FulRan=T
         wScrn=  0.000000 ICntrl=    2127 IOpCl=  1 I1Cent=           0 NGrid=           0
         NMat0=    1 NMatS0=      0 NMatT0=    1 NMatD0=    1 NMtDS0=    0 NMtDT0=    0
         CW=    0.222036    0.777964
         WU=    0.000000   12.500000
 Symmetry not used in FoFCou.
 FoFCou:  KetSym=F NOpSet=  1 NOpAb=1 NOp=  1.
 FoFCou:  CnvScl= 1.00D+00 Thresh= 1.00D-10 IAcrcy=      10.
 PrismS was handed   419296852 working-precision words and  1275 shell-pairs
 FoFCou: LinMIO=F DoNuc=F BraDBF=F KetDBF=F HaveP=T PDBF=F HaveZ=T HaveW=F
         NIJTC =      10 NIJTAt=       0 NIJTCD=       0 NIJTT =      10
         IJTBeg=       1 IJTEnd=      10 KLTBeg=       1 KLTEnd=      10
         IPTBeg=       1 IPTEnd=      10 IPTBCv=       1 IPTECv=      10
         IZTBeg=       1 IZTEnd=      10 IZTBCv=       1 IZTECv=      10
         IWTBeg=      11 IWTEnd=      10 IWTBCv=      11 IWTECv=      10
         INTBeg=       1 INTEnd=       0 IFTBCv=       1 IFTECv=      10
 NCel replicated for PrismC:     1
 CoulSu:  IncDef=  1024 NBBP=         813450 NTPThr=   100 NPartT=   32 Incr=         254 LDynOK=F.
 CoulSu:  NPrtUS=  32 ThrOK=T IAlg=1 NPAlg=1 LenDen=           0 LWGrdD=           0 DoCopy=F.
 Enter PrismC: JobTyp=21 DoJE=F Cont=F.
 Linear combination for Coulomb/exchange, wScrn=  0.000000
 CW=    0.222036    0.777964
 Enter PrismC: JobTyp=21 DoJE=F Cont=F.
 Enter PrismC: JobTyp=21 DoJE=F Cont=F.
 Enter PrismC: JobTyp=21 DoJE=F Cont=F.
 Linear combination for Coulomb/exchange, wScrn=  0.000000
 CW=    0.222036    0.777964
 WU=    0.000000   12.500000
 Enter PrismC: JobTyp=21 DoJE=F Cont=F.
 Linear combination for Coulomb/exchange, wScrn=  0.000000
 CW=    0.222036    0.777964
 WU=    0.000000   12.500000
 Enter PrismC: JobTyp=21 DoJE=F Cont=F.
 Linear combination for Coulomb/exchange, wScrn=  0.000000
 CW=    0.222036    0.777964
 WU=    0.000000   12.500000
 PrismC was handed    13082653 working-precision words and  1275 shell-pairs
 Enter PrismC: JobTyp=21 DoJE=F Cont=F.
 Linear combination for Coulomb/exchange, wScrn=  0.000000
 CW=    0.222036    0.777964
 WU=    0.000000   12.500000
 Enter PrismC: JobTyp=21 DoJE=F Cont=F.
 Linear combination for Coulomb/exchange, wScrn=  0.000000
 CW=    0.222036    0.777964
 WU=    0.000000   12.500000
 Enter PrismC: JobTyp=21 DoJE=F Cont=F.
 Linear combination for Coulomb/exchange, wScrn=  0.000000
 CW=    0.222036    0.777964
 WU=    0.000000   12.500000
 Enter PrismC: JobTyp=21 DoJE=F Cont=F.
 Linear combination for Coulomb/exchange, wScrn=  0.000000
 CW=    0.222036    0.777964
 WU=    0.000000   12.500000
 Enter PrismC: JobTyp=21 DoJE=F Cont=F.
 Linear combination for Coulomb/exchange, wScrn=  0.000000
 CW=    0.222036    0.777964
 WU=    0.000000   12.500000
 WU=    0.000000   12.500000
 Enter PrismC: JobTyp=21 DoJE=F Cont=F.
 Linear combination for Coulomb/exchange, wScrn=  0.000000
 CW=    0.222036    0.777964
 WU=    0.000000   12.500000
 Enter PrismC: JobTyp=21 DoJE=F Cont=F.
 Linear combination for Coulomb/exchange, wScrn=  0.000000
 CW=    0.222036    0.777964
 WU=    0.000000   12.500000
 Enter PrismC: JobTyp=21 DoJE=F Cont=F.
 Linear combination for Coulomb/exchange, wScrn=  0.000000
 CW=    0.222036    0.777964
 WU=    0.000000   12.500000
 Enter PrismC: JobTyp=21 DoJE=F Cont=F.
 Linear combination for Coulomb/exchange, wScrn=  0.000000
 CW=    0.222036    0.777964
 WU=    0.000000   12.500000
 Enter PrismC: JobTyp=21 DoJE=F Cont=F.
 Linear combination for Coulomb/exchange, wScrn=  0.000000
 CW=    0.222036    0.777964
 WU=    0.000000   12.500000
 Enter PrismC: JobTyp=21 DoJE=F Cont=F.
 Linear combination for Coulomb/exchange, wScrn=  0.000000
 CW=    0.222036    0.777964
 WU=    0.000000   12.500000
 Linear combination for Coulomb/exchange, wScrn=  0.000000
 CW=    0.222036    0.777964
 WU=    0.000000   12.500000
 Enter PrismC: JobTyp=21 DoJE=F Cont=F.
 Linear combination for Coulomb/exchange, wScrn=  0.000000
 CW=    0.222036    0.777964
 WU=    0.000000   12.500000
 PrismC was handed    13082653 working-precision words and  1275 shell-pairs
 Enter PrismC: JobTyp=21 DoJE=F Cont=F.
 Linear combination for Coulomb/exchange, wScrn=  0.000000
 CW=    0.222036    0.777964
 WU=    0.000000   12.500000
 Enter PrismC: JobTyp=21 DoJE=F Cont=F.
 Linear combination for Coulomb/exchange, wScrn=  0.000000
 CW=    0.222036    0.777964
 WU=    0.000000   12.500000
 Enter PrismC: JobTyp=21 DoJE=F Cont=F.
 Linear combination for Coulomb/exchange, wScrn=  0.000000
 CW=    0.222036    0.777964
 WU=    0.000000   12.500000
 Enter PrismC: JobTyp=21 DoJE=F Cont=F.
 Linear combination for Coulomb/exchange, wScrn=  0.000000
 CW=    0.222036    0.777964
 WU=    0.000000   12.500000
 Enter PrismC: JobTyp=21 DoJE=F Cont=F.
 Linear combination for Coulomb/exchange, wScrn=  0.000000
 CW=    0.222036    0.777964
 WU=    0.000000   12.500000
 Enter PrismC: JobTyp=21 DoJE=F Cont=F.
 Linear combination for Coulomb/exchange, wScrn=  0.000000
 CW=    0.222036    0.777964
 WU=    0.000000   12.500000
 Linear combination for Coulomb/exchange, wScrn=  0.000000
 CW=    0.222036    0.777964
 WU=    0.000000   12.500000
 PrismC was handed    13082653 working-precision words and  1275 shell-pairs
 PrismC:  IPart=     0 DynPar=T LinDyn=F Incr=         254 UseFst=F UseS4=T IGathr=2.
 PrismC was handed    13082653 working-precision words and  1275 shell-pairs
 Enter PrismC: JobTyp=21 DoJE=F Cont=F.
 Linear combination for Coulomb/exchange, wScrn=  0.000000
 CW=    0.222036    0.777964
 WU=    0.000000   12.500000
 Enter PrismC: JobTyp=21 DoJE=F Cont=F.
 Linear combination for Coulomb/exchange, wScrn=  0.000000
 CW=    0.222036    0.777964
 WU=    0.000000   12.500000
 Enter PrismC: JobTyp=21 DoJE=F Cont=F.
 Linear combination for Coulomb/exchange, wScrn=  0.000000
 CW=    0.222036    0.777964
 WU=    0.000000   12.500000
 Enter PrismC: JobTyp=21 DoJE=F Cont=F.
 Linear combination for Coulomb/exchange, wScrn=  0.000000
 CW=    0.222036    0.777964
 WU=    0.000000   12.500000
 Enter PrismC: JobTyp=21 DoJE=F Cont=F.
 Linear combination for Coulomb/exchange, wScrn=  0.000000
 CW=    0.222036    0.777964
 WU=    0.000000   12.500000
 Enter PrismC: JobTyp=21 DoJE=F Cont=F.
 Linear combination for Coulomb/exchange, wScrn=  0.000000
 CW=    0.222036    0.777964
 WU=    0.000000   12.500000
 PrismC was handed    13082653 working-precision words and  1275 shell-pairs
 Enter PrismC: JobTyp=21 DoJE=F Cont=F.
 Linear combination for Coulomb/exchange, wScrn=  0.000000
 CW=    0.222036    0.777964
 WU=    0.000000   12.500000
 PrismC was handed    13082653 working-precision words and  1275 shell-pairs
 PrismC was handed    13082653 working-precision words and  1275 shell-pairs
 PrismC was handed    13082653 working-precision words and  1275 shell-pairs
 PrismC was handed    13082653 working-precision words and  1275 shell-pairs
 Enter PrismC: JobTyp=21 DoJE=F Cont=F.
 Linear combination for Coulomb/exchange, wScrn=  0.000000
 CW=    0.222036    0.777964
 WU=    0.000000   12.500000
 PrismC was handed    13082653 working-precision words and  1275 shell-pairs
 PrismC was handed    13082653 working-precision words and  1275 shell-pairs
 PrismC was handed    13082653 working-precision words and  1275 shell-pairs
 PrismC was handed    13082653 working-precision words and  1275 shell-pairs
 PrismC was handed    13082653 working-precision words and  1275 shell-pairs
 PrismC was handed    13082653 working-precision words and  1275 shell-pairs
 PrismC was handed    13082653 working-precision words and  1275 shell-pairs
 PrismC was handed    13082653 working-precision words and  1275 shell-pairs
 PrismC was handed    13082653 working-precision words and  1275 shell-pairs
 PrismC was handed    13082653 working-precision words and  1275 shell-pairs
 PrismC was handed    13082653 working-precision words and  1275 shell-pairs
 PrismC was handed    13082653 working-precision words and  1275 shell-pairs
 PrismC was handed    13082653 working-precision words and  1275 shell-pairs
 PrismC was handed    13082653 working-precision words and  1275 shell-pairs
 PrismC was handed    13082653 working-precision words and  1275 shell-pairs
 PrismC was handed    13082653 working-precision words and  1275 shell-pairs
 PrismC was handed    13082653 working-precision words and  1275 shell-pairs
 PrismC was handed    13082653 working-precision words and  1275 shell-pairs
 PrismC was handed    13082653 working-precision words and  1275 shell-pairs
 PrismC was handed    13082653 working-precision words and  1275 shell-pairs
 PrismC was handed    13082653 working-precision words and  1275 shell-pairs
 PrismC was handed    13082653 working-precision words and  1275 shell-pairs
 PrismC was handed    13082653 working-precision words and  1275 shell-pairs
 IPart= 10 NShTot=       24875 NShNF=       24875 NShFF=           0 NBatch=         317 AvBLen=        78.5
 IPart= 21 NShTot=       25681 NShNF=       25681 NShFF=           0 NBatch=         321 AvBLen=        80.0
 IPart= 31 NShTot=       22629 NShNF=       22629 NShFF=           0 NBatch=         305 AvBLen=        74.2
 IPart= 18 NShTot=       24540 NShNF=       24540 NShFF=           0 NBatch=         263 AvBLen=        93.3
 IPart= 22 NShTot=       24693 NShNF=       24693 NShFF=           0 NBatch=         324 AvBLen=        76.2
 IPart=  1 NShTot=       27644 NShNF=       27644 NShFF=           0 NBatch=         323 AvBLen=        85.6
 IPart=  6 NShTot=       27356 NShNF=       27356 NShFF=           0 NBatch=         265 AvBLen=       103.2
 IPart= 15 NShTot=       25973 NShNF=       25973 NShFF=           0 NBatch=         288 AvBLen=        90.2
 IPart=  0 NShTot=       26756 NShNF=       26756 NShFF=           0 NBatch=         276 AvBLen=        96.9
 IPart= 20 NShTot=       24591 NShNF=       24591 NShFF=           0 NBatch=         325 AvBLen=        75.7
 IPart=  8 NShTot=       23191 NShNF=       23191 NShFF=           0 NBatch=         321 AvBLen=        72.2
 IPart= 25 NShTot=       23306 NShNF=       23306 NShFF=           0 NBatch=         316 AvBLen=        73.8
 IPart= 26 NShTot=       26823 NShNF=       26823 NShFF=           0 NBatch=         307 AvBLen=        87.4
 IPart= 12 NShTot=       23087 NShNF=       23087 NShFF=           0 NBatch=         257 AvBLen=        89.8
 IPart= 13 NShTot=       22520 NShNF=       22520 NShFF=           0 NBatch=         343 AvBLen=        65.7
 IPart= 23 NShTot=       24694 NShNF=       24694 NShFF=           0 NBatch=         277 AvBLen=        89.1
 IPart= 11 NShTot=       27994 NShNF=       27994 NShFF=           0 NBatch=         282 AvBLen=        99.3
 IPart= 30 NShTot=       29460 NShNF=       29460 NShFF=           0 NBatch=         291 AvBLen=       101.2
 IPart=  5 NShTot=       23350 NShNF=       23350 NShFF=           0 NBatch=         298 AvBLen=        78.4
 IPart= 14 NShTot=       24846 NShNF=       24846 NShFF=           0 NBatch=         322 AvBLen=        77.2
 IPart= 28 NShTot=       24454 NShNF=       24454 NShFF=           0 NBatch=         320 AvBLen=        76.4
 IPart= 29 NShTot=       26418 NShNF=       26418 NShFF=           0 NBatch=         317 AvBLen=        83.3
 IPart= 24 NShTot=       23583 NShNF=       23583 NShFF=           0 NBatch=         227 AvBLen=       103.9
 IPart= 19 NShTot=       24258 NShNF=       24258 NShFF=           0 NBatch=         318 AvBLen=        76.3
 IPart= 17 NShTot=       26017 NShNF=       26017 NShFF=           0 NBatch=         339 AvBLen=        76.7
 IPart=  3 NShTot=       23173 NShNF=       23173 NShFF=           0 NBatch=         339 AvBLen=        68.4
 IPart=  2 NShTot=       26287 NShNF=       26287 NShFF=           0 NBatch=         282 AvBLen=        93.2
 IPart=  9 NShTot=       26609 NShNF=       26609 NShFF=           0 NBatch=         283 AvBLen=        94.0
 IPart=  7 NShTot=       25338 NShNF=       25338 NShFF=           0 NBatch=         290 AvBLen=        87.4
 IPart=  4 NShTot=       28160 NShNF=       28160 NShFF=           0 NBatch=         340 AvBLen=        82.8
 IPart= 16 NShTot=       27439 NShNF=       27439 NShFF=           0 NBatch=         342 AvBLen=        80.2
 IPart= 27 NShTot=       26371 NShNF=       26371 NShFF=           0 NBatch=         265 AvBLen=        99.5
 CoulSu:  NxtVal=         897637.
 ReadGW:  IGet=0 IStart=           1 Next=           1 LGW=           0.
 Remaining memory in FofDFT      399.95 Mw
 CkSvGd:  ISavGI=        -1 IRadAn=       5 IRASav=       5 ISavGd=        -1.
 CalDSu:  NPrtUS=  32 ThrOK=T IAlg=1 NPAlg=2 DoDPD=T LenP=       12090 LenD1P=             0.
 IPart=  0 IRanGd=          0 ScrnBf=T ScrnGd=T RCrit=4.00D+00 DoMicB=T.
 IPart=  1         2642 of         2642 points in       2 batches and        6 microbatches, Max-NSigAt=       5 Max-NSgAt2=       5
 IPart=  7         3309 of         3592 points in       4 batches and       22 microbatches, Max-NSigAt=       5 Max-NSgAt2=       5
 IPart=  6         3160 of         3568 points in       4 batches and       28 microbatches, Max-NSigAt=       5 Max-NSgAt2=       5
 IPart=  4         3395 of         3764 points in       4 batches and        9 microbatches, Max-NSigAt=       5 Max-NSgAt2=       5
 IPart= 11         3111 of         3596 points in       5 batches and       45 microbatches, Max-NSigAt=       5 Max-NSgAt2=       5
 IPart=  9         2739 of         2964 points in       3 batches and       27 microbatches, Max-NSigAt=       5 Max-NSgAt2=       5
 IPart= 30         2581 of         2718 points in       2 batches and       22 microbatches, Max-NSigAt=       5 Max-NSgAt2=       5
 IPart= 26         2551 of         2556 points in       2 batches and        7 microbatches, Max-NSigAt=       5 Max-NSgAt2=       5
 IPart= 24         2623 of         2642 points in       2 batches and        6 microbatches, Max-NSigAt=       5 Max-NSgAt2=       5
 IPart= 31         3023 of         3142 points in       3 batches and       21 microbatches, Max-NSigAt=       5 Max-NSgAt2=       5
 IPart= 10         3113 of         3568 points in       4 batches and       26 microbatches, Max-NSigAt=       5 Max-NSgAt2=       5
 IPart= 22         2669 of         2732 points in       2 batches and        9 microbatches, Max-NSigAt=       5 Max-NSgAt2=       5
 IPart=  2         3086 of         3336 points in       3 batches and       21 microbatches, Max-NSigAt=       5 Max-NSgAt2=       5
 IPart= 28         3064 of         3266 points in       4 batches and       28 microbatches, Max-NSigAt=       5 Max-NSgAt2=       5
 IPart= 16         3467 of         3968 points in       5 batches and       45 microbatches, Max-NSigAt=       5 Max-NSgAt2=       5
 IPart= 17         3368 of         3596 points in       4 batches and       18 microbatches, Max-NSigAt=       5 Max-NSgAt2=       5
 IPart=  3         3346 of         3596 points in       4 batches and       21 microbatches, Max-NSigAt=       5 Max-NSgAt2=       5
 IPart= 18         3635 of         4214 points in       6 batches and       47 microbatches, Max-NSigAt=       5 Max-NSgAt2=       5
 IPart=  5         3860 of         4144 points in       4 batches and       11 microbatches, Max-NSigAt=       5 Max-NSgAt2=       5
 IPart= 13         3420 of         3540 points in       3 batches and       13 microbatches, Max-NSigAt=       5 Max-NSgAt2=       5
 IPart= 15         3547 of         3748 points in       4 batches and       27 microbatches, Max-NSigAt=       5 Max-NSgAt2=       5
 IPart= 19         4203 of         4804 points in       6 batches and       30 microbatches, Max-NSigAt=       5 Max-NSgAt2=       5
 IPart= 29         3548 of         3568 points in       3 batches and        9 microbatches, Max-NSigAt=       5 Max-NSgAt2=       5
 IPart= 27         3540 of         3540 points in       3 batches and        9 microbatches, Max-NSigAt=       5 Max-NSgAt2=       5
 IPart= 21         3499 of         3568 points in       3 batches and       11 microbatches, Max-NSigAt=       5 Max-NSgAt2=       5
 IPart= 25         3536 of         3540 points in       3 batches and       12 microbatches, Max-NSigAt=       5 Max-NSgAt2=       5
 IPart= 23         3540 of         3540 points in       3 batches and       11 microbatches, Max-NSigAt=       5 Max-NSgAt2=       5
 IPart= 12         4034 of         4454 points in       5 batches and       32 microbatches, Max-NSigAt=       5 Max-NSgAt2=       5
 IPart= 14         3518 of         3764 points in       4 batches and       31 microbatches, Max-NSigAt=       5 Max-NSgAt2=       5
 IPart=  0         3480 of         3592 points in       3 batches and       12 microbatches, Max-NSigAt=       5 Max-NSgAt2=       5
 IPart= 20         4190 of         4516 points in       4 batches and       13 microbatches, Max-NSigAt=       5 Max-NSgAt2=       5
 IPart=  8         4089 of         4482 points in       5 batches and       49 microbatches, Max-NSigAt=       5 Max-NSgAt2=       5
 Forces at end of L703
 I=    0 X=   1.396224554590D-01 Y=   4.637914878553D-01 Z=   8.562827694919D-02
 I=    1 X=   1.992789270587D-02 Y=   6.673645865213D-02 Z=   1.230160217583D-02
 I=    2 X=   5.394144142556D-05 Y=   1.250962447427D-04 Z=   2.036591547990D-03
 I=    3 X=   1.815304010155D-03 Y=   1.039078441606D-04 Z=  -8.995682790232D-04
 I=    4 X=  -1.377927499863D-03 Y=   1.115853223602D-03 Z=  -8.647083312892D-04
 I=    5 X=  -2.041921065758D-02 Y=  -6.808131596462D-02 Z=  -1.257391711352D-02
 FrcOut:
 IF    =    36 IFX   =    51 IFXYZ =    66
 IFFX  =    81 IFFFX =   201 IFLen =    15
 IFFLen=   120 IFFFLn=     0 IEDerv=   201
 LEDerv=   773 IFroze=  1163 ICStrt= 39591
 FCEst1:  Generated internal coordinate force constants:
                1             2             3             4             5 
      1  0.663124D+00
      2 -0.116478D+00  0.312401D+00
      3 -0.213712D-01 -0.713160D-01  0.685179D+00
      4 -0.991519D-01  0.104949D-01 -0.484441D-03  0.685117D-01
      5  0.104951D-01 -0.677002D-01 -0.151982D-02 -0.585354D-02  0.510205D-01
      6  0.000000D+00  0.000000D+00 -0.357418D+00  0.000000D+00  0.000000D+00
      7 -0.304270D+00  0.475756D-02  0.104640D+00  0.175851D-01  0.557322D-03
      8  0.340388D-02 -0.676541D-01  0.100160D-01  0.122639D-02  0.422652D-02
      9  0.104178D+00  0.932557D-02 -0.152306D+00  0.344696D-01  0.109244D-02
     10 -0.235695D+00  0.106744D+00 -0.817442D-01  0.126909D-01 -0.617369D-02
     11  0.108110D+00 -0.136266D+00  0.662154D-01 -0.684235D-02  0.913732D-02
     12 -0.817625D-01  0.653905D-01 -0.152466D+00 -0.281158D-01  0.199663D-01
     13 -0.240077D-01 -0.551876D-02 -0.104047D-02  0.364170D-03  0.974780D-03
     14 -0.553189D-02 -0.407804D-01 -0.339566D-02  0.974627D-03  0.331581D-02
     15 -0.104422D-02 -0.340008D-02 -0.229880D-01 -0.586942D-02 -0.195389D-01
                6             7             8             9            10 
      6  0.357418D+00
      7  0.000000D+00  0.297757D+00
      8  0.000000D+00 -0.265048D-02  0.510022D-01
      9  0.000000D+00 -0.116944D+00 -0.519536D-02  0.128189D+00
     10  0.000000D+00 -0.876646D-02  0.149838D-01 -0.171836D-01  0.224760D+00
     11  0.000000D+00 -0.310557D-02  0.912946D-02 -0.608741D-02 -0.112663D+00
     12  0.000000D+00  0.109419D-01 -0.145648D-01  0.214478D-01  0.946749D-01
     13  0.000000D+00 -0.230595D-02 -0.169636D-01 -0.452002D-02  0.700972D-02
     14  0.000000D+00  0.441173D-03  0.329589D-02  0.864767D-03 -0.289105D-02
     15  0.000000D+00  0.136168D-02  0.974407D-02  0.266911D-02  0.425294D-02
               11            12            13            14            15 
     11  0.123997D+00
     12 -0.690164D-01  0.128335D+00
     13  0.145004D-01  0.426147D-02  0.189397D-01
     14 -0.599721D-02 -0.177570D-02  0.700714D-02  0.401659D-01
     15  0.888833D-02  0.268364D-02  0.129902D-02  0.430658D-02  0.176352D-01
 Quadrupole    = 3.92023301D-01-8.63359401D-01 4.71336100D-01
                -4.16910491D-01-7.67323230D-02-2.55286555D-01
 -------------------------------------------------------------------
 Center     Atomic                   Forces (Hartrees/Bohr)
 Number     Number              X              Y              Z
 -------------------------------------------------------------------
      1        6          -0.019927893   -0.066736459   -0.012301602
      2        1          -0.000053941   -0.000125096   -0.002036592
      3        1          -0.001815304   -0.000103908    0.000899568
      4        1           0.001377927   -0.001115853    0.000864708
      5        1           0.020419211    0.068081316    0.012573917
 -------------------------------------------------------------------
 Cartesian Forces:  Max     0.068081316 RMS     0.026108098
 From PutF, contents of force:
   1   -0.2036591548D-02
   2   -0.2025831466D-02
   3   -0.1965262770D-02
   4    0.4833043748D-04
   5    0.6678932662D-04
   6   -0.3058404218D-03
   7    0.1106133625D-03
   8   -0.6098343379D-05
   9   -0.7218110731D-01
 -----------------------------------------------------------------------------------------------
                       Internal Coordinate Forces (Hartree/Bohr or radian)
  Cent   Atom   N1       Length/X         N2         Alpha/Y        N3         Beta/Z          J
 -----------------------------------------------------------------------------------------------
      1  C 
      2  H        1  -0.002037(     1)
      3  H        1  -0.002026(     2)      2   0.000048(     5)
      4  H        1  -0.001965(     3)      2   0.000067(     6)      3  -0.000306(     8)     0
      5  H        1  -0.072181(     4)      2  -0.000006(     7)      3   0.000111(     9)     0
 -----------------------------------------------------------------------------------------------
 Internal  Forces:  Max     0.072181107 RMS     0.024088584
 Force constants in Cartesian coordinates: 
                1             2             3             4             5 
      1  0.663124D+00
      2 -0.116478D+00  0.312401D+00
      3 -0.213712D-01 -0.713160D-01  0.685179D+00
      4 -0.991519D-01  0.104949D-01 -0.484441D-03  0.685117D-01
      5  0.104951D-01 -0.677002D-01 -0.151982D-02 -0.585354D-02  0.510205D-01
      6  0.000000D+00  0.000000D+00 -0.357418D+00  0.000000D+00  0.000000D+00
      7 -0.304270D+00  0.475756D-02  0.104640D+00  0.175851D-01  0.557322D-03
      8  0.340388D-02 -0.676541D-01  0.100160D-01  0.122639D-02  0.422652D-02
      9  0.104178D+00  0.932557D-02 -0.152306D+00  0.344696D-01  0.109244D-02
     10 -0.235695D+00  0.106744D+00 -0.817442D-01  0.126909D-01 -0.617369D-02
     11  0.108110D+00 -0.136266D+00  0.662154D-01 -0.684235D-02  0.913732D-02
     12 -0.817625D-01  0.653905D-01 -0.152466D+00 -0.281158D-01  0.199663D-01
     13 -0.240077D-01 -0.551876D-02 -0.104047D-02  0.364170D-03  0.974780D-03
     14 -0.553189D-02 -0.407804D-01 -0.339566D-02  0.974627D-03  0.331581D-02
     15 -0.104422D-02 -0.340008D-02 -0.229880D-01 -0.586942D-02 -0.195389D-01
                6             7             8             9            10 
      6  0.357418D+00
      7  0.000000D+00  0.297757D+00
      8  0.000000D+00 -0.265048D-02  0.510022D-01
      9  0.000000D+00 -0.116944D+00 -0.519536D-02  0.128189D+00
     10  0.000000D+00 -0.876646D-02  0.149838D-01 -0.171836D-01  0.224760D+00
     11  0.000000D+00 -0.310557D-02  0.912946D-02 -0.608741D-02 -0.112663D+00
     12  0.000000D+00  0.109419D-01 -0.145648D-01  0.214478D-01  0.946749D-01
     13  0.000000D+00 -0.230595D-02 -0.169636D-01 -0.452002D-02  0.700972D-02
     14  0.000000D+00  0.441173D-03  0.329589D-02  0.864767D-03 -0.289105D-02
     15  0.000000D+00  0.136168D-02  0.974407D-02  0.266911D-02  0.425294D-02
               11            12            13            14            15 
     11  0.123997D+00
     12 -0.690164D-01  0.128335D+00
     13  0.145004D-01  0.426147D-02  0.189397D-01
     14 -0.599721D-02 -0.177570D-02  0.700714D-02  0.401659D-01
     15  0.888833D-02  0.268364D-02  0.129902D-02  0.430658D-02  0.176352D-01
 FCInt: Cartesian first derivatives: 
                 1             2             3             4             5 
      1   0.000000D+00  0.000000D+00  0.000000D+00  0.000000D+00  0.000000D+00
      2   0.000000D+00  0.000000D+00  0.000000D+00  0.000000D+00  0.000000D+00
      3   0.000000D+00  0.000000D+00  0.000000D+00  0.000000D+00  0.000000D+00
 FCInt: Cartesian force constants: 
                1             2             3             4             5 
      1  0.663124D+00
      2 -0.116478D+00  0.312401D+00
      3 -0.213712D-01 -0.713160D-01  0.685179D+00
      4 -0.991519D-01  0.104949D-01 -0.484441D-03  0.685117D-01
      5  0.104951D-01 -0.677002D-01 -0.151982D-02 -0.585354D-02  0.510205D-01
      6  0.000000D+00  0.000000D+00 -0.357418D+00  0.000000D+00  0.000000D+00
      7 -0.304270D+00  0.475756D-02  0.104640D+00  0.175851D-01  0.557322D-03
      8  0.340388D-02 -0.676541D-01  0.100160D-01  0.122639D-02  0.422652D-02
      9  0.104178D+00  0.932557D-02 -0.152306D+00  0.344696D-01  0.109244D-02
     10 -0.235695D+00  0.106744D+00 -0.817442D-01  0.126909D-01 -0.617369D-02
     11  0.108110D+00 -0.136266D+00  0.662154D-01 -0.684235D-02  0.913732D-02
     12 -0.817625D-01  0.653905D-01 -0.152466D+00 -0.281158D-01  0.199663D-01
     13 -0.240077D-01 -0.551876D-02 -0.104047D-02  0.364170D-03  0.974780D-03
     14 -0.553189D-02 -0.407804D-01 -0.339566D-02  0.974627D-03  0.331581D-02
     15 -0.104422D-02 -0.340008D-02 -0.229880D-01 -0.586942D-02 -0.195389D-01
                6             7             8             9            10 
      6  0.357418D+00
      7  0.000000D+00  0.297757D+00
      8  0.000000D+00 -0.265048D-02  0.510022D-01
      9  0.000000D+00 -0.116944D+00 -0.519536D-02  0.128189D+00
     10  0.000000D+00 -0.876646D-02  0.149838D-01 -0.171836D-01  0.224760D+00
     11  0.000000D+00 -0.310557D-02  0.912946D-02 -0.608741D-02 -0.112663D+00
     12  0.000000D+00  0.109419D-01 -0.145648D-01  0.214478D-01  0.946749D-01
     13  0.000000D+00 -0.230595D-02 -0.169636D-01 -0.452002D-02  0.700972D-02
     14  0.000000D+00  0.441173D-03  0.329589D-02  0.864767D-03 -0.289105D-02
     15  0.000000D+00  0.136168D-02  0.974407D-02  0.266911D-02  0.425294D-02
               11            12            13            14            15 
     11  0.123997D+00
     12 -0.690164D-01  0.128335D+00
     13  0.145004D-01  0.426147D-02  0.189397D-01
     14 -0.599721D-02 -0.177570D-02  0.700714D-02  0.401659D-01
     15  0.888833D-02  0.268364D-02  0.129902D-02  0.430658D-02  0.176352D-01
 Internal force constants: 
                1             2             3             4             5 
      1  0.357418D+00
      2  0.000000D+00  0.357418D+00
      3  0.000000D+00  0.000000D+00  0.357538D+00
      4  0.000000D+00  0.000000D+00  0.000000D+00  0.430660D-01
      5  0.000000D+00  0.000000D+00  0.000000D+00  0.000000D+00  0.286554D+00
      6  0.000000D+00  0.000000D+00  0.000000D+00  0.000000D+00  0.113038D+00
      7  0.000000D+00  0.000000D+00  0.000000D+00  0.000000D+00  0.235170D-01
      8  0.000000D+00  0.000000D+00  0.000000D+00  0.000000D+00  0.609189D-01
      9  0.000000D+00  0.000000D+00  0.000000D+00  0.000000D+00 -0.391098D-01
                6             7             8             9 
      6  0.286643D+00
      7  0.236477D-01  0.240541D+00
      8  0.215885D-01 -0.681977D-01  0.169088D+00
      9  0.392375D-01  0.739718D-04 -0.116437D+00  0.233183D+00
 Frcnst in PutFF: 
                1             2             3             4             5 
      1  0.357418D+00
      2  0.000000D+00  0.357418D+00
      3  0.000000D+00  0.000000D+00  0.357538D+00
      4  0.000000D+00  0.000000D+00  0.000000D+00  0.286554D+00
      5  0.000000D+00  0.000000D+00  0.000000D+00  0.113038D+00  0.286643D+00
      6  0.000000D+00  0.000000D+00  0.000000D+00  0.609189D-01  0.215885D-01
      7  0.000000D+00  0.000000D+00  0.000000D+00 -0.391098D-01  0.392375D-01
      8  0.000000D+00  0.000000D+00  0.000000D+00  0.235170D-01  0.236477D-01
      9  0.000000D+00  0.000000D+00  0.000000D+00  0.000000D+00  0.000000D+00
                6             7             8             9 
      6  0.169088D+00
      7 -0.116437D+00  0.233183D+00
      8 -0.681977D-01  0.739718D-04  0.240541D+00
      9  0.000000D+00  0.000000D+00  0.000000D+00  0.430660D-01
 Force constants in internal coordinates: 
                1             2             3             4             5 
      1  0.357418D+00
      2  0.000000D+00  0.357418D+00
      3  0.000000D+00  0.000000D+00  0.357538D+00
      4  0.000000D+00  0.000000D+00  0.000000D+00  0.430660D-01
      5  0.000000D+00  0.000000D+00  0.000000D+00  0.000000D+00  0.286554D+00
      6  0.000000D+00  0.000000D+00  0.000000D+00  0.000000D+00  0.113038D+00
      7  0.000000D+00  0.000000D+00  0.000000D+00  0.000000D+00  0.235170D-01
      8  0.000000D+00  0.000000D+00  0.000000D+00  0.000000D+00  0.609189D-01
      9  0.000000D+00  0.000000D+00  0.000000D+00  0.000000D+00 -0.391098D-01
                6             7             8             9 
      6  0.286643D+00
      7  0.236477D-01  0.240541D+00
      8  0.215885D-01 -0.681977D-01  0.169088D+00
      9  0.392375D-01  0.739718D-04 -0.116437D+00  0.233183D+00
 Final forces over variables, Energy=-4.03880028D+01:
 -2.03659155D-03-2.02583147D-03-1.96526277D-03 4.83304375D-05
  6.67893266D-05-3.05840422D-04 1.10613362D-04-6.09834338D-06
 -7.21811073D-02

 GradGradGradGradGradGradGradGradGradGradGradGradGradGradGradGradGradGrad
 Berny optimization.
 Search for a local minimum.
 Step number   1 out of a maximum of   50
 All quantities printed in internal units (Hartrees-Bohrs-Radians)
 Second derivative matrix not updated -- first step.
 The second derivative matrix:
                          R1        R2        R3        A2        A3
           R1           0.35742
           R2           0.00000   0.35742
           R3           0.00000  -0.00000   0.35754
           A2           0.00000  -0.00000   0.00000   0.28655
           A3           0.00000  -0.00000   0.00000   0.11304   0.28664
           D3           0.00000  -0.00000  -0.00000   0.06092   0.02159
           DH1          0.00000   0.00000   0.00000  -0.03911   0.03924
           ANG1         0.00000  -0.00000   0.00000   0.02352   0.02365
           BB           0.00000  -0.00000  -0.00000  -0.00000   0.00000
                          D3        DH1      ANG1       BB
           D3           0.16909
           DH1         -0.11644   0.23318
           ANG1        -0.06820   0.00007   0.24054
           BB          -0.00000   0.00000   0.00000   0.04307
 ITU=  0
     Eigenvalues ---    0.05352   0.14811   0.24330   0.35009   0.35742
     Eigenvalues ---    0.35742   0.35754   0.420991000.00000
 RFO step:  Lambda=-3.48479953D-05 EMin= 5.35196020D-02
 Linear search not attempted -- first point.
 Variable       Old X    -DE/DX   Delta X   Delta X   Delta X     New X
                                 (Linear)    (Quad)   (Total)
    R1        2.04487  -0.00204   0.00000  -0.00570  -0.00570   2.03918
    R2        2.04487  -0.00203   0.00000  -0.00567  -0.00567   2.03921
    R3        2.04468  -0.00197   0.00000  -0.00550  -0.00550   2.03919
    A2        2.04254   0.00005   0.00000   0.00061   0.00061   2.04315
    A3        2.04294   0.00007   0.00000   0.00049   0.00049   2.04343
    D3        3.72742  -0.00031   0.00000  -0.00333  -0.00333   3.72409
   DH1        1.86260   0.00011   0.00000  -0.00117  -0.00117   1.86143
   ANG1       1.74587  -0.00001   0.00000  -0.00108  -0.00108   1.74479
    BB        3.77945  -0.07218   0.00000   0.00000   0.00000   3.77945
         Item               Value     Threshold  Converged?
 Maximum Force            0.002037     0.000450     NO 
 RMS     Force            0.001236     0.000300     NO 
 Maximum Displacement     0.005698     0.001800     NO 
 RMS     Displacement     0.003480     0.001200     NO 
 Predicted change in Energy=-1.742400D-05
 GradGradGradGradGradGradGradGradGradGradGradGradGradGradGradGradGradGrad

 ---------------------------------------------------------------------------------------------------
                            Z-MATRIX (ANGSTROMS AND DEGREES)
   CD    Cent   Atom    N1       Length/X        N2       Alpha/Y        N3        Beta/Z          J
 ---------------------------------------------------------------------------------------------------
      1      1  C 
      2      2  H        1   1.079085(     1)
      3      3  H        1   1.079101(     2)      2  117.064(     5)
      4      4  H        1   1.079092(     3)      2  117.080(     6)      3  213.375(     8)      0
      5      5  H        1   2.000000(     4)      2   99.969(     7)      3  106.652(     9)      0
 ---------------------------------------------------------------------------------------------------
                         Z-Matrix orientation:                         
 ---------------------------------------------------------------------
 Center     Atomic      Atomic             Coordinates (Angstroms)
 Number     Number       Type             X           Y           Z
 ---------------------------------------------------------------------
      1          6           0        0.000000    0.000000    0.000000
      2          1           0        0.000000    0.000000    1.079085
      3          1           0        0.960938    0.000000   -0.490976
      4          1           0       -0.802350    0.528540   -0.491242
      5          1           0       -0.564472   -1.887192   -0.346234
 ---------------------------------------------------------------------
                    Distance matrix (angstroms):
                    1          2          3          4          5
     1  C    0.000000
     2  H    1.079085   0.000000
     3  H    1.079101   1.840786   0.000000
     4  H    1.079092   1.840936   1.840798   0.000000
     5  H    2.000000   2.431390   2.430909   2.431743   0.000000
 Symmetry turned off by external request.
 Stoichiometry    CH4
 Framework group  C1[X(CH4)]
 Deg. of freedom     9
 Full point group                 C1      NOp   1
 Rotational constants (GHZ):    147.9789670     88.4636765     88.4581333
 Standard basis: Aug-CC-pVTZ (5D, 7F)
   138 basis functions,   180 primitive gaussians,   155 cartesian basis functions
     5 alpha electrons        5 beta electrons
       nuclear repulsion energy        11.9299072108 Hartrees.
 NAtoms=    5 NActive=    5 NUniq=    5 SFac= 1.00D+00 NAtFMM=   60 NAOKFM=F Big=F
 Integral buffers will be    131072 words long.
 Raffenetti 2 integral format.
 Two-electron integral symmetry is turned off.
 Nuclear repulsion after empirical dispersion term =       11.9291371652 Hartrees.
 One-electron integrals computed using PRISM.
 NBasis=   138 RedAO= T EigKep=  1.04D-04  NBF=   138
 NBsUse=   138 1.00D-06 EigRej= -1.00D+00 NBFU=   138
 ExpMin= 2.53D-02 ExpMax= 8.24D+03 ExpMxC= 2.81D+02 IAcc=3 IRadAn=         5 AccDes= 0.00D+00
 Harris functional with IExCor= 4639 and IRadAn=       5 diagonalized for initial guess.
 HarFok:  IExCor= 4639 AccDes= 0.00D+00 IRadAn=         5 IDoV= 1 UseB2=F ITyADJ=14
 ICtDFT=  3500011 ScaDFX=  1.000000  1.000000  1.000000  1.000000
 FoFCou: FMM=F IPFlag=           0 FMFlag=      100000 FMFlg1=           0
         NFxFlg=           0 DoJE=T BraDBF=F KetDBF=T FulRan=T
         wScrn=  0.000000 ICntrl=     500 IOpCl=  0 I1Cent=   200000004 NGrid=           0
         NMat0=    1 NMatS0=      1 NMatT0=    0 NMatD0=    1 NMtDS0=    0 NMtDT0=    0
 Symmetry not used in FoFCou.
 Mixing orbitals, IMix= 1 IMixAn=  0 NRI=1 NE=    5 Coef=  7.07106781D-01  7.07106781D-01
 Mixing orbitals, IMix= 1 IMixAn=  0 NRI=1 NE=    5 Coef= -7.07106781D-01  7.07106781D-01
 Initial guess <Sx>= 0.0000 <Sy>= 0.0000 <Sz>= 0.0000 <S**2>= 1.0000 S= 0.6180
 Keep R1 and R2 ints in memory in canonical form, NReq=186090023.
 Requested convergence on RMS density matrix=1.00D-08 within 128 cycles.
 Requested convergence on MAX density matrix=1.00D-06.
 Requested convergence on             energy=1.00D-06.
 No special actions if energy rises.
 SCF Done:  E(UwB97XD) =  -40.3880201766     A.U. after   21 cycles
            NFock= 21  Conv=0.20D-08     -V/T= 2.0140
 <Sx>= 0.0000 <Sy>= 0.0000 <Sz>= 0.0000 <S**2>=-0.0000 S=-0.0000
 <L.S>=  0.00000000000    
 Annihilation of the first spin contaminant:
 S**2 before annihilation    -0.0000,   after     0.0000
 DipInt: DoE/N= T T RetVal/Mat= T F Init=T NMatP=  1 IDeriv=0 Min/MaxMlt=  1  1
 Entering OneElI...
 Multipole integrals L=1 to 1 MinM= 0 MaxM= 0.
 Requested accuracy = 0.1000D-12
 PrsmSu:  NPrtUS=   1 ThrOK=F IAlg=1 NPAlg=1 LenDen=           0.
 Prism:   IPart=     0 DynPar=F LinDyn=F Incr=          12.
 PRISM was handed   419323234 working-precision words and  1275 shell-pairs
 IPart=  0 NShTot=        1275 NBatch=          37 AvBLen=        34.5
 PrSmSu:  NxtVal=             13.
 Entering OneElI...
 Calculate overlap and kinetic energy integrals
    NBasis = 155  MinDer = 1  MaxDer = 1
 Requested accuracy = 0.1000D-12
 PrsmSu:  NPrtUS=  32 ThrOK=T IAlg=1 NPAlg=1 LenDen=           0.
 Prism:   IPart=     0 DynPar=F LinDyn=F Incr=           1.
 PRISM was handed    13082544 working-precision words and  1275 shell-pairs
 PRISM was handed    13082544 working-precision words and  1275 shell-pairs
 PRISM was handed    13082544 working-precision words and  1275 shell-pairs
 PRISM was handed    13082544 working-precision words and  1275 shell-pairs
 PRISM was handed    13082544 working-precision words and  1275 shell-pairs
 PRISM was handed    13082544 working-precision words and  1275 shell-pairs
 PRISM was handed    13082544 working-precision words and  1275 shell-pairs
 PRISM was handed    13082544 working-precision words and  1275 shell-pairs
 PRISM was handed    13082544 working-precision words and  1275 shell-pairs
 PRISM was handed    13082544 working-precision words and  1275 shell-pairs
 PRISM was handed    13082544 working-precision words and  1275 shell-pairs
 PRISM was handed    13082544 working-precision words and  1275 shell-pairs
[...]
     5  H   -0.039335  -0.000000
 Sum of Mulliken charges =   0.00000  -0.00000
 Mulliken charges and spin densities with hydrogens summed into heavy atoms:
               1          2
     1  C    0.000000  -0.000000
 APT charges:
               1
     1  C    0.136373
     2  H    0.009543
     3  H    0.009715
     4  H    0.009420
     5  H   -0.165052
 Sum of APT charges =   0.00000
 APT charges with hydrogens summed into heavy atoms:
               1
     1  C    0.000000
 Electronic spatial extent (au):  <R**2>=             47.7662
 Charge=             -0.0000 electrons
 Dipole moment (field-independent basis, Debye):
    X=              0.3516    Y=              1.1828    Z=              0.2150  Tot=              1.2525
 Quadrupole moment (field-independent basis, Debye-Ang):
   XX=             -8.8825   YY=            -10.5929   ZZ=             -8.7786
   XY=             -0.5577   XZ=             -0.1012   YZ=             -0.3411
 Traceless Quadrupole moment (field-independent basis, Debye-Ang):
   XX=              0.5355   YY=             -1.1749   ZZ=              0.6394
   XY=             -0.5577   XZ=             -0.1012   YZ=             -0.3411
 Octapole moment (field-independent basis, Debye-Ang**2):
  XXX=              3.0855  YYY=              8.5031  ZZZ=              2.7412  XYY=              0.4337
  XXY=              3.3395  XXZ=             -0.2802  XZZ=              0.9381  YZZ=              3.1574
  YYZ=              0.2653  XYZ=              0.1779
 Hexadecapole moment (field-independent basis, Debye-Ang**3):
 XXXX=            -19.7708 YYYY=            -44.2784 ZZZZ=            -17.7751 XXXY=             -4.9235
 XXXZ=             -1.0817 YYYX=             -3.0648 YYYZ=             -1.8745 ZZZX=             -0.8681
 ZZZY=             -2.9216 XXYY=            -11.2213 XXZZ=             -6.3602 YYZZ=            -11.4240
 XXYZ=             -1.0992 YYXZ=              0.1980 ZZXY=             -1.6507
 N-N= 1.192889266632D+01 E-N=-1.164519999595D+02  KE= 3.983091988595D+01
  Exact polarizability:  22.449   6.504  42.402   1.181   3.976  21.242
 Approx polarizability:  21.271   8.214  46.472   1.493   5.024  19.743
                          Isotropic Fermi Contact Couplings
        Atom                 a.u.       MegaHertz       Gauss      10(-4) cm-1
     1  C(13)              0.00000       0.00000       0.00000       0.00000
     2  H(1)              -0.00000      -0.00000      -0.00000      -0.00000
     3  H(1)              -0.00000      -0.00000      -0.00000      -0.00000
     4  H(1)              -0.00000      -0.00000      -0.00000      -0.00000
     5  H(1)              -0.00000      -0.00008      -0.00003      -0.00003
 --------------------------------------------------------
       Center         ----  Spin Dipole Couplings  ----
                      3XX-RR        3YY-RR        3ZZ-RR
 --------------------------------------------------------
     1   Atom       -0.000000      0.000000     -0.000000
     2   Atom       -0.000000     -0.000000      0.000000
     3   Atom        0.000000     -0.000000     -0.000000
     4   Atom        0.000000      0.000000     -0.000000
     5   Atom       -0.000000      0.000000     -0.000000
 --------------------------------------------------------
                        XY            XZ            YZ
 --------------------------------------------------------
     1   Atom        0.000000      0.000000      0.000000
     2   Atom        0.000000     -0.000000     -0.000000
     3   Atom       -0.000000     -0.000000      0.000000
     4   Atom       -0.000000      0.000000     -0.000000
     5   Atom        0.000000      0.000000      0.000000
 --------------------------------------------------------


 ---------------------------------------------------------------------------------
              Anisotropic Spin Dipole Couplings in Principal Axis System
 ---------------------------------------------------------------------------------

       Atom             a.u.   MegaHertz   Gauss  10(-4) cm-1        Axes

              Baa    -0.0000    -0.000    -0.000    -0.000  0.9051 -0.3196  0.2806
     1 C(13)  Bbb    -0.0000    -0.000    -0.000    -0.000 -0.3197 -0.0763  0.9444
              Bcc     0.0000     0.000     0.000     0.000  0.2805  0.9445  0.1712
 
              Baa    -0.0000    -0.000    -0.000    -0.000  0.9586 -0.2846  0.0001
     2 H(1)   Bbb    -0.0000    -0.000    -0.000    -0.000  0.2831  0.9535  0.1031
              Bcc     0.0000     0.000     0.000     0.000 -0.0294 -0.0988  0.9947
 
              Baa    -0.0000    -0.000    -0.000    -0.000  0.4371 -0.2844  0.8533
     3 H(1)   Bbb    -0.0000    -0.000    -0.000    -0.000  0.2216  0.9535  0.2042
              Bcc     0.0000     0.000     0.000     0.000  0.8717 -0.0998 -0.4798
 
              Baa    -0.0000    -0.000    -0.000    -0.000 -0.5216  0.0002  0.8532
     4 H(1)   Bbb    -0.0000    -0.000    -0.000    -0.000  0.3340  0.9202  0.2040
              Bcc     0.0000     0.000     0.000     0.000  0.7851 -0.3914  0.4801
 
              Baa    -0.0000    -0.000    -0.000    -0.000  0.8412 -0.1559 -0.5177
     5 H(1)   Bbb    -0.0000    -0.000    -0.000    -0.000  0.4622 -0.2896  0.8382
              Bcc     0.0000     0.000     0.000     0.000  0.2806  0.9444  0.1716
 

 ---------------------------------------------------------------------------------

 Calling FoFJK, ICntrl=    100127 FMM=F ISym2X=0 I1Cent= 0 IOpClX= 1 NMat=1 NMatS=1 NMatT=0.
 Full mass-weighted force constant matrix:
 Low frequencies --- -912.4808    0.0006    0.0009    0.0011   24.6554  499.1902
 Low frequencies ---  500.9371  987.8146  988.4508
 ******    1 imaginary frequencies (negative Signs) ****** 
 Diagonal vibrational polarizability:
        0.5134262       4.4302195       0.2760569
 Harmonic frequencies (cm**-1), IR intensities (KM/Mole), Raman scattering
 activities (A**4/AMU), depolarization ratios for plane and unpolarized
 incident light, reduced masses (AMU), force constants (mDyne/A),
 and normal coordinates:
                      1                      2                      3
                      A                      A                      A
 Frequencies --   -912.4806               934.2621               935.1122
 Red. masses --      1.1139                 1.0550                 1.0550
 Frc consts  --      0.5465                 0.5426                 0.5436
 IR Inten    --   152.8                  2.846                  2.877    
  Atom  AN      X      Y      Z        X      Y      Z        X      Y      Z
     1   6     0.03   0.09   0.02     0.05  -0.01  -0.04     0.04  -0.02   0.05
     2   1    -0.02  -0.06   0.01    -0.19  -0.36  -0.04     0.09   0.53   0.06
     3   1     0.00  -0.06  -0.02     0.15   0.63   0.15    -0.03   0.11  -0.07
     4   1    -0.03  -0.05  -0.02    -0.14  -0.24   0.03    -0.18  -0.57  -0.16
     5   1    -0.28  -0.93  -0.17    -0.44   0.07   0.33    -0.30   0.17  -0.44
                      4                      5                      6
                      A                      A                      A
 Frequencies --   1066.6116              1435.9147              1436.5933
 Red. masses --      1.1581                 1.0863                 1.0864
 Frc consts  --      0.7763                 1.3197                 1.3210
 IR Inten    --  0.1051E-02              3.443                  3.443    
  Atom  AN      X      Y      Z        X      Y      Z        X      Y      Z
     1   6     0.03   0.11   0.02    -0.05   0.03  -0.06     0.06  -0.01  -0.06
     2   1    -0.16  -0.53   0.01     0.57  -0.04  -0.05    -0.50   0.28  -0.05
     3   1    -0.06  -0.53  -0.14     0.32  -0.17   0.67     0.12  -0.22   0.10
     4   1    -0.24  -0.48  -0.14    -0.23  -0.12   0.10    -0.37   0.03   0.67
     5   1     0.07   0.23   0.04    -0.02   0.01  -0.02     0.03  -0.00  -0.02
                      7                      8                      9
                      A                      A                      A
 Frequencies --   3132.3641              3299.4433              3299.4964
 Red. masses --      1.0132                 1.1167                 1.1167
 Frc consts  --      5.8573                 7.1623                 7.1627
 IR Inten    --   4.182                 0.4714                 0.4767    
  Atom  AN      X      Y      Z        X      Y      Z        X      Y      Z
     1   6    -0.01  -0.02  -0.00     0.09  -0.02  -0.04     0.04  -0.03   0.09
     2   1    -0.00  -0.01   0.58     0.01  -0.01   0.36     0.01   0.01  -0.73
     3   1     0.51  -0.01  -0.27    -0.72   0.01   0.37     0.05  -0.00  -0.01
     4   1    -0.43   0.27  -0.27    -0.33   0.21  -0.22    -0.51   0.32  -0.30
     5   1    -0.00  -0.00  -0.00    -0.00   0.00   0.00    -0.00   0.00  -0.00

 -------------------
 - Thermochemistry -
 -------------------
 Temperature   298.150 Kelvin.  Pressure   1.00000 Atm.
 Atom     1 has atomic number  6 and mass  12.00000
 Atom     2 has atomic number  1 and mass   1.00783
 Atom     3 has atomic number  1 and mass   1.00783
 Atom     4 has atomic number  1 and mass   1.00783
 Atom     5 has atomic number  1 and mass   1.00783
 Molecular mass:    16.03130 amu.
 Principal axes and moments of inertia in atomic units:
                           1         2         3
     Eigenvalues --    12.20306  20.39564  20.39620
           X            0.28059   0.52327   0.80465
           Y            0.94436  -0.30041  -0.13395
           Z            0.17163   0.79746  -0.57844
 This molecule is an asymmetric top.
 Rotational symmetry number  1.
 Rotational temperatures (Kelvin)      7.09771     4.24668     4.24657
 Rotational constants (GHZ):         147.89255    88.48662    88.48417
    1 imaginary frequencies ignored.
 Zero-point vibrational energy      92948.6 (Joules/Mol)
                                   22.21526 (Kcal/Mol)
 Vibrational temperatures:   1344.19  1345.42  1534.61  2065.96  2066.93
          (Kelvin)           4506.77  4747.16  4747.23
 
 Zero-point correction=                           0.035402 (Hartree/Particle)
 Thermal correction to Energy=                    0.038371
 Thermal correction to Enthalpy=                  0.039315
 Thermal correction to Gibbs Free Energy=         0.015137
 Sum of electronic and zero-point Energies=            -40.352618
 Sum of electronic and thermal Energies=               -40.349650
 Sum of electronic and thermal Enthalpies=             -40.348706
 Sum of electronic and thermal Free Energies=          -40.372884
 
                     E (Thermal)             CV                S
                      KCal/Mol        Cal/Mol-Kelvin    Cal/Mol-Kelvin
 Total                   24.078              7.367             50.887
 Electronic               0.000              0.000              0.000
 Translational            0.889              2.981             34.261
 Rotational               0.889              2.981             16.281
 Vibrational             22.301              1.406              0.345
                       Q            Log10(Q)             Ln(Q)
 Total Bot       0.109054D-06         -6.962360        -16.031426
 Total V=0       0.209660D+10          9.321516         21.463585
 Vib (Bot)       0.535929D-16        -16.270892        -37.465114
 Vib (V=0)       0.103035D+01          0.012984          0.029897
 Electronic      0.100000D+01          0.000000          0.000000
 Translational   0.252295D+07          6.401908         14.740939
 Rotational      0.806537D+03          2.906624          6.692749
 -------------------------------------------------------------------
 Center     Atomic                   Forces (Hartrees/Bohr)
 Number     Number              X              Y              Z
 -------------------------------------------------------------------
      1        6          -0.020215508   -0.068064537   -0.012368652
      2        1          -0.000005601    0.000005208    0.000000726
      3        1           0.000000780    0.000004609   -0.000000179
      4        1          -0.000001513   -0.000001112   -0.000000729
      5        1           0.020221842    0.068055832    0.012368834
 -------------------------------------------------------------------
 Cartesian Forces:  Max     0.068064537 RMS     0.026315951
 -----------------------------------------------------------------------------------------------
                       Internal Coordinate Forces (Hartree/Bohr or radian)
  Cent   Atom   N1       Length/X         N2         Alpha/Y        N3         Beta/Z          J
 -----------------------------------------------------------------------------------------------
      1  C 
      2  H        1   0.000001(     1)
      3  H        1   0.000001(     2)      2  -0.000000(     5)
      4  H        1   0.000001(     3)      2   0.000001(     6)      3  -0.000003(     8)     0
      5  H        1  -0.072066(     4)      2   0.000001(     7)      3   0.000007(     9)     0
 -----------------------------------------------------------------------------------------------
 Internal  Forces:  Max     0.072065992 RMS     0.024021998

 GradGradGradGradGradGradGradGradGradGradGradGradGradGradGradGradGradGrad
 Berny optimization.
 Search for a local minimum.
 Step number   1 out of a maximum of    2
 All quantities printed in internal units (Hartrees-Bohrs-Radians)
 Second derivative matrix not updated -- analytic derivatives used.
 The second derivative matrix:
                          R1        R2        R3        A2        A3
           R1           0.37167
           R2           0.00013   0.37166
           R3           0.00013   0.00013   0.37166
           A2           0.01544   0.00228  -0.01378   0.18345
           A3           0.01544  -0.01380   0.00241   0.07168   0.18413
           D3           0.00138  -0.00640  -0.00690   0.04227   0.02067
           DH1          0.00001  -0.00055   0.00055  -0.02127   0.02129
           ANG1        -0.00063   0.00030   0.00032   0.00556   0.00552
           BB           0.00054   0.00054   0.00054  -0.00404  -0.00402
                          D3        DH1      ANG1       BB
           D3           0.08873
           DH1         -0.05423   0.10822
           ANG1        -0.03361   0.00022   0.11140
           BB           0.01207   0.00002   0.00001  -0.02582
 ITU=  0
     Eigenvalues ---    0.02807   0.08710   0.11991   0.17146   0.26229
     Eigenvalues ---    0.37212   0.37258   0.377381000.00000
 Angle between quadratic step and forces=  37.41 degrees.
 Linear search not attempted -- first point.
 Variable       Old X    -DE/DX   Delta X   Delta X   Delta X     New X
                                 (Linear)    (Quad)   (Total)
    R1        2.03926   0.00000   0.00000   0.00000   0.00000   2.03926
    R2        2.03928   0.00000   0.00000   0.00000   0.00000   2.03928
    R3        2.03926   0.00000   0.00000   0.00000   0.00000   2.03926
    A2        2.04403  -0.00000   0.00000   0.00001   0.00001   2.04404
    A3        2.04417   0.00000   0.00000  -0.00001  -0.00001   2.04416
    D3        3.71951  -0.00000   0.00000   0.00001   0.00001   3.71952
   DH1        1.85965   0.00001   0.00000   0.00008   0.00008   1.85973
   ANG1       1.74328   0.00000   0.00000   0.00001   0.00001   1.74329
    BB        3.77945  -0.07207   0.00000   0.00000   0.00000   3.77945
         Item               Value     Threshold  Converged?
 Maximum Force            0.000007     0.000450     YES
 RMS     Force            0.000003     0.000300     YES
 Maximum Displacement     0.000077     0.001800     YES
 RMS     Displacement     0.000027     0.001200     YES
 Predicted change in Energy=-2.544151D-10
 Optimization completed.
    -- Stationary point found.
                       ----------------------------
                       !   Optimized Parameters   !
                       ! (Angstroms and Degrees)  !
 ----------------------                            ----------------------
 !      Name          Value   Derivative information (Atomic Units)     !
 ------------------------------------------------------------------------
 !       R1          1.0791   -DE/DX =    0.0                           !
 !       R2          1.0791   -DE/DX =    0.0                           !
 !       R3          1.0791   -DE/DX =    0.0                           !
 !       A2        117.1143   -DE/DX =    0.0                           !
 !       A3        117.1221   -DE/DX =    0.0                           !
 !       D3        213.1119   -DE/DX =    0.0                           !
 !       DH1       106.5501   -DE/DX =    0.0                           !
 !      ANG1        99.8829   -DE/DX =    0.0                           !
 !       BB          2.0      -DE/DX =   -0.0721                        !
 ------------------------------------------------------------------------
 GradGradGradGradGradGradGradGradGradGradGradGradGradGradGradGradGradGrad


 Test job not archived.
 1\1\GINC-NODE-6-6\Freq\UwB97XD\Aug-CC-pVTZ\C1H4\CAVALLOTTI\03-Jun-2023
 \1\\#N Geom=AllCheck Guess=TCheck SCRF=Check Test GenChk UwB97XD/Aug-C
 C-pVTZ Freq\\geom 0\\0,1\C\H,1,R1\H,1,R2,2,A2\H,1,R3,2,A3,3,D3,0\H,1,B
 B,2,ANG1,3,DH1,0\\R1=1.07912983\R2=1.07913788\R3=1.07913006\A2=117.114
 25795\A3=117.12207833\D3=213.11194758\DH1=106.55014094\ANG1=99.8828602
 1\BB=2.\\Version=EM64L-G09RevD.01\HF=-40.3880207\S2=0.\S2-1=0.\S2A=0.\
 RMSD=4.547e-11\RMSF=2.632e-02\ZeroPoint=0.0354023\Thermal=0.0383707\Di
 pole=0.1383184,0.4653523,0.0845761\DipoleDeriv=0.0133812,0.1281077,0.0
 232153,0.1280246,0.4059878,0.0782318,0.0232367,0.0782644,-0.0102487,0.
 058297,-0.0199545,-0.0223181,-0.0201097,-0.003443,-0.0748793,-0.008355
 8,-0.0282637,-0.0262248,-0.0208828,-0.0344797,0.0319298,-0.0755964,-0.
 0032184,0.0160862,0.0180455,-0.0050856,0.0532472,0.0344511,0.0092321,-
 0.0177181,0.0507384,-0.0593438,0.031269,-0.0178743,0.0057981,0.0531527
 ,-0.0852464,-0.0829056,-0.0151088,-0.0830569,-0.3399827,-0.0507077,-0.
 0150521,-0.0507133,-0.0699264\Polar=22.4485904,6.5043088,42.4016502,1.
 181137,3.9763808,21.2420676\PG=C01 [X(C1H4)]\NImag=1\\0.58608708,-0.15
 145052,0.12157296,-0.02749260,-0.09259953,0.61429541,-0.05078227,0.007
 30200,-0.00056817,0.04417356,0.00731332,-0.02833854,-0.00191663,-0.005
 62859,0.02693523,0.00142761,0.00479379,-0.35814419,-0.00114149,-0.0038
 1384,0.37166674,-0.29394526,0.00761549,0.12595926,0.00496837,0.0013353
 8,-0.00333474,0.30271731,0.00160355,-0.02828671,0.00738908,0.00146231,
 0.00201798,0.00074187,-0.00594952,0.02685403,0.12398893,0.00433715,-0.
 11486632,0.02625440,0.00096540,-0.00679725,-0.13353429,-0.00327048,0.1
 1305875,-0.21883502,0.11666976,-0.10149363,0.00280763,-0.00184341,0.00
 321043,-0.01224214,0.01266981,-0.01379638,0.22580518,0.12265120,-0.103
 39488,0.07497144,-0.00196186,0.00417135,-0.00118841,-0.00197878,0.0041
 9412,-0.00121850,-0.12377232,0.10378947,-0.10151256,0.07132196,-0.1150
 8213,-0.02145802,0.01514278,-0.00679823,0.01089355,-0.00854038,0.00819
 652,0.11007644,-0.07565749,0.11327769,-0.02252453,0.01986327,0.0035951
 4,-0.00116728,-0.00117670,-0.00016181,-0.00149828,-0.00978616,-0.00291
 266,0.00246435,0.00506177,0.00200059,0.02272575,0.01988245,0.03844716,
 0.01215564,-0.00117386,-0.00478602,-0.00053341,-0.00102257,-0.00477942
 ,-0.00081357,-0.00372384,-0.00876006,-0.00226686,-0.01396219,-0.020121
 66,0.00358862,0.01214663,-0.02620276,-0.00308672,-0.01037772,0.0000729
 3,0.00001622,0.00367992,0.00040830,0.00200313,0.00309297,0.00040614,-0
 .00252125,-0.00854180,0.02531539\\0.02021551,0.06806454,0.01236865,0.0
 0000560,-0.00000521,-0.00000073,-0.00000078,-0.00000461,0.00000018,0.0
 0000151,0.00000111,0.00000073,-0.02022184,-0.06805583,-0.01236883\\\@


 THE WISE MAN HAS THE POWER TO REASON AWAY
 WHAT A FOOL BELIEVES.
                     - DOOBIE BROTHERS
 Job cpu time:       0 days  0 hours  7 minutes 38.4 seconds.
 File lengths (MBytes):  RWF=     66 Int=      0 D2E=      0 Chk=      3 Scr=      1
 Normal termination of Gaussian 09 at Sat Jun  3 08:51:05 2023.
