 Entering Gaussian System, Link 0=g09
 Input=geom.com
 Output=geom.log
 Initial command:
 /software/cinetica/g09d1/g09d01/d01/build-node-6-2-59348/src/main/l1.exe "/scratch/cc/140713/Gau-88388.inp" -scrdir="/scratch/cc/140713/"
 Entering Link 1 = /software/cinetica/g09d1/g09d01/d01/build-node-6-2-59348/src/main/l1.exe PID=     88389.
  
 Copyright (c) 1988,1990,1992,1993,1995,1998,2003,2009,2013,
            Gaussian, Inc.  All Rights Reserved.
  
 This is part of the Gaussian(R) 09 program.  It is based on
 the Gaussian(R) 03 system (copyright 2003, Gaussian, Inc.),
 the Gaussian(R) 98 system (copyright 1998, Gaussian, Inc.),
 the Gaussian(R) 94 system (copyright 1995, Gaussian, Inc.),
 the Gaussian 92(TM) system (copyright 1992, Gaussian, Inc.),
 the Gaussian 90(TM) system (copyright 1990, Gaussian, Inc.),
 the Gaussian 88(TM) system (copyright 1988, Gaussian, Inc.),
 the Gaussian 86(TM) system (copyright 1986, Carnegie Mellon
 University), and the Gaussian 82(TM) system (copyright 1983,
 Carnegie Mellon University). Gaussian is a federally registered
 trademark of Gaussian, Inc.
  
 This software contains proprietary and confidential information,
 including trade secrets, belonging to Gaussian, Inc.
  
 This software is provided under written license and may be
 used, copied, transmitted, or stored only in accord with that
 written license.
  
 The following legend is applicable only to US Government
 contracts under FAR:
  
                    RESTRICTED RIGHTS LEGEND
  
 Use, reproduction and disclosure by the US Government is
 subject to restrictions as set forth in subparagraphs (a)
 and (c) of the Commercial Computer Software - Restricted
 Rights clause in FAR 52.227-19.
  
 Gaussian, Inc.
 340 Quinnipiac St., Bldg. 40, Wallingford CT 06492
  
  
 ---------------------------------------------------------------
 Warning -- This program may not be used in any manner that
 competes with the business of Gaussian, Inc. or will provide
 assistance to any competitor of Gaussian, Inc.  The licensee
 of this program is prohibited from giving any competitor of
 Gaussian, Inc. access to this program.  By using this program,
 the user acknowledges that Gaussian, Inc. is engaged in the
 business of creating and licensing software in the field of
 computational chemistry and represents and warrants to the
 licensee that it is not a competitor of Gaussian, Inc. and that
 it will not use this program in any manner prohibited above.
 ---------------------------------------------------------------
  

 Cite this work as:
 Gaussian 09, Revision D.01,
 M. J. Frisch, G. W. Trucks, H. B. Schlegel, G. E. Scuseria, 
 M. A. Robb, J. R. Cheeseman, G. Scalmani, V. Barone, B. Mennucci, 
 G. A. Petersson, H. Nakatsuji, M. Caricato, X. Li, H. P. Hratchian, 
 A. F. Izmaylov, J. Bloino, G. Zheng, J. L. Sonnenberg, M. Hada, 
 M. Ehara, K. Toyota, R. Fukuda, J. Hasegawa, M. Ishida, T. Nakajima, 
 Y. Honda, O. Kitao, H. Nakai, T. Vreven, J. A. Montgomery, Jr., 
 J. E. Peralta, F. Ogliaro, M. Bearpark, J. J. Heyd, E. Brothers, 
 K. N. Kudin, V. N. Staroverov, T. Keith, R. Kobayashi, J. Normand, 
 K. Raghavachari, A. Rendell, J. C. Burant, S. S. Iyengar, J. Tomasi, 
 M. Cossi, N. Rega, J. M. Millam, M. Klene, J. E. Knox, J. B. Cross, 
 V. Bakken, C. Adamo, J. Jaramillo, R. Gomperts, R. E. Stratmann, 
 O. Yazyev, A. J. Austin, R. Cammi, C. Pomelli, J. W. Ochterski, 
 R. L. Martin, K. Morokuma, V. G. Zakrzewski, G. A. Voth, 
 P. Salvador, J. J. Dannenberg, S. Dapprich, A. D. Daniels, 
 O. Farkas, J. B. Foresman, J. V. Ortiz, J. Cioslowski, 
 and D. J. Fox, Gaussian, Inc., Wallingford CT, 2013.
 
 ******************************************
 Gaussian 09:  EM64L-G09RevD.01 24-Apr-2013
                 3-Jun-2023 
 ******************************************
 %mem=400MW
 %chk=tmp
 %NProcShared= 32
 Will use up to   32 processors via shared memory.
 ----------------------------------------------------------------------
 # uwb97xd/aug-cc-pvtz opt=(noeig,intern,maxcyc=50) # int=ultrafine nos
 ym iop(7/33=1) guess=(mix,always)
 ----------------------------------------------------------------------
 1/6=50,10=7,11=1,14=-1,18=40,26=4,38=1/1,3;
 2/12=2,15=1,17=6,18=5,29=3,40=1/2;
 3/5=16,6=1,7=10,11=2,16=1,25=1,30=1,71=1,74=-58,75=-5,116=2/1,2,3;
 4/13=-1/1;
 5/5=2,38=5/2;
 6/7=2,8=2,9=2,10=2,28=1/1;
 7/29=1,30=1,33=1/1,2,3,16;
 1/6=50,10=7,11=1,14=-1,18=40,26=4/3(2);
 2/15=1,29=3/2;
 99//99;
 2/15=1,29=3/2;
 3/5=16,6=1,7=10,11=2,16=1,25=1,30=1,71=1,74=-58,75=-5,116=2/1,2,3;
 4/13=-1/1;
 5/5=2,38=5/2;
 7/30=1,33=1/1,2,3,16;
 1/6=50,11=1,14=-1,18=40,26=4/3(-5);
 2/15=1,29=3/2;
 6/7=2,8=2,9=2,10=2,19=2,28=1/1;
 99/9=1/99;
 ------
 geom 0
 ------
 Symbolic Z-matrix:
 Charge =  0 Multiplicity = 1
 C1
 H2                   C1   R1
 H3                   C1   R2       H2   A2
 H4                   C1   R3       H2   A3       H3   D3       0
 H21                  1    rts      2    aabs1    3    babs1    0
       Variables:
  BABS1                90.3099                   
  AABS1                90.1208                   
       Constants:
  R3                    1.0782                   
  A2                  119.9721                   
  A3                  120.0207                   
  D3                  179.8076                   
  R2                    1.0782                   
  R1                    1.0782                   
  RTS                   3.4                      
 

 GradGradGradGradGradGradGradGradGradGradGradGradGradGradGradGradGradGrad
 Berny optimization.
 Initialization pass.
                       ----------------------------
                       !    Initial Parameters    !
                       ! (Angstroms and Degrees)  !
 ----------------------                            ----------------------
 !      Name          Value   Derivative information (Atomic Units)     !
 ------------------------------------------------------------------------
 !      BABS1       90.3099   estimate D2E/DX2                          !
 !      AABS1       90.1208   estimate D2E/DX2                          !
 !       R3          1.0782   Frozen                                    !
 !       A2        119.9721   Frozen                                    !
 !       A3        120.0207   Frozen                                    !
 !       D3        179.8076   Frozen                                    !
 !       R2          1.0782   Frozen                                    !
 !       R1          1.0782   Frozen                                    !
 !       RTS         3.4      Frozen                                    !
 ------------------------------------------------------------------------
 Trust Radius=3.00D-01 FncErr=1.00D-07 GrdErr=1.00D-06
 Number of steps in this run=     50 maximum allowed number of steps=    100.
 GradGradGradGradGradGradGradGradGradGradGradGradGradGradGradGradGradGrad

 ---------------------------------------------------------------------------------------------------
                            Z-MATRIX (ANGSTROMS AND DEGREES)
   CD    Cent   Atom    N1       Length/X        N2       Alpha/Y        N3        Beta/Z          J
 ---------------------------------------------------------------------------------------------------
      1      1  C 
      2      2  H        1   1.078200(     1)
      3      3  H        1   1.078200(     2)      2  119.972(     5)
      4      4  H        1   1.078200(     3)      2  120.021(     6)      3  179.808(     8)      0
      5      5  H        1   3.400000(     4)      2   90.121(     7)      3   90.310(     9)      0
 ---------------------------------------------------------------------------------------------------
                         Z-Matrix orientation:                         
 ---------------------------------------------------------------------
 Center     Atomic      Atomic             Coordinates (Angstroms)
 Number     Number       Type             X           Y           Z
 ---------------------------------------------------------------------
      1          6           0        0.000000    0.000000    0.000000
      2          1           0        0.000000    0.000000    1.078200
      3          1           0        0.934011    0.000000   -0.538645
      4          1           0       -0.933548   -0.003135   -0.539437
      5          1           0       -0.018390   -3.399943   -0.007168
 ---------------------------------------------------------------------
                    Distance matrix (angstroms):
                    1          2          3          4          5
     1  C    0.000000
     2  H    1.078200   0.000000
     3  H    1.078200   1.867235   0.000000
     4  H    1.078200   1.867692   1.867562   0.000000
     5  H    3.400000   3.569030   3.570595   3.557967   0.000000
 Symmetry turned off by external request.
 Stoichiometry    CH4
 Framework group  C1[X(CH4)]
 Deg. of freedom     9
 Full point group                 C1      NOp   1
 Rotational constants (GHZ):    143.7897888     39.8761610     39.8732764
 Standard basis: Aug-CC-pVTZ (5D, 7F)
   138 basis functions,   180 primitive gaussians,   155 cartesian basis functions
     5 alpha electrons        5 beta electrons
       nuclear repulsion energy        11.0634754122 Hartrees.
 NAtoms=    5 NActive=    5 NUniq=    5 SFac= 1.00D+00 NAtFMM=   60 NAOKFM=F Big=F
 Integral buffers will be    131072 words long.
 Raffenetti 2 integral format.
 Two-electron integral symmetry is turned off.
 Nuclear repulsion after empirical dispersion term =       11.0630314888 Hartrees.
 One-electron integrals computed using PRISM.
 NBasis=   138 RedAO= T EigKep=  1.01D-04  NBF=   138
 NBsUse=   138 1.00D-06 EigRej= -1.00D+00 NBFU=   138
 ExpMin= 2.53D-02 ExpMax= 8.24D+03 ExpMxC= 2.81D+02 IAcc=3 IRadAn=         5 AccDes= 0.00D+00
 Harris functional with IExCor= 4639 and IRadAn=       5 diagonalized for initial guess.
 HarFok:  IExCor= 4639 AccDes= 0.00D+00 IRadAn=         5 IDoV= 1 UseB2=F ITyADJ=14
 ICtDFT=  3500011 ScaDFX=  1.000000  1.000000  1.000000  1.000000
 FoFCou: FMM=F IPFlag=           0 FMFlag=      100000 FMFlg1=           0
         NFxFlg=           0 DoJE=T BraDBF=F KetDBF=T FulRan=T
         wScrn=  0.000000 ICntrl=     500 IOpCl=  0 I1Cent=   200000004 NGrid=           0
         NMat0=    1 NMatS0=      1 NMatT0=    0 NMatD0=    1 NMtDS0=    0 NMtDT0=    0
 Symmetry not used in FoFCou.
 Mixing orbitals, IMix= 1 IMixAn=  0 NRI=1 NE=    5 Coef=  7.07106781D-01  7.07106781D-01
 Mixing orbitals, IMix= 1 IMixAn=  0 NRI=1 NE=    5 Coef= -7.07106781D-01  7.07106781D-01
 Initial guess <Sx>= 0.0000 <Sy>= 0.0000 <Sz>= 0.0000 <S**2>= 1.0000 S= 0.6180
 Keep R1 and R2 ints in memory in canonical form, NReq=186088835.
 Requested convergence on RMS density matrix=1.00D-08 within 128 cycles.
 Requested convergence on MAX density matrix=1.00D-06.
 Requested convergence on             energy=1.00D-06.
 No special actions if energy rises.
 Rare condition: small coef for last iteration:  0.000D+00
 SCF Done:  E(UwB97XD) =  -40.3419360776     A.U. after   20 cycles
            NFock= 20  Conv=0.46D-08     -V/T= 2.0070
 <Sx>= 0.0000 <Sy>= 0.0000 <Sz>= 0.0000 <S**2>= 0.9912 S= 0.6141
 <L.S>=  0.00000000000    
 Annihilation of the first spin contaminant:
 S**2 before annihilation     0.9912,   after     0.0307

 **********************************************************************

            Population analysis using the SCF density.

 **********************************************************************

 Alpha  occ. eigenvalues --  -10.29651  -0.78724  -0.50970  -0.50962  -0.31565
 Alpha virt. eigenvalues --    0.03352   0.05286   0.05292   0.07394   0.11877
 Alpha virt. eigenvalues --    0.13208   0.13210   0.13356   0.15632   0.20069
 Alpha virt. eigenvalues --    0.20073   0.24173   0.24175   0.27473   0.31945
 Alpha virt. eigenvalues --    0.32502   0.32503   0.34211   0.35558   0.35592
 Alpha virt. eigenvalues --    0.36282   0.37963   0.39578   0.39591   0.41051
 Alpha virt. eigenvalues --    0.41063   0.44844   0.44860   0.48744   0.58253
 Alpha virt. eigenvalues --    0.64833   0.68701   0.68738   0.71819   0.74993
 Alpha virt. eigenvalues --    0.75011   0.79472   0.79487   0.80512   0.83078
 Alpha virt. eigenvalues --    0.89089   0.89122   0.90665   0.92830   0.92958
 Alpha virt. eigenvalues --    0.92974   0.94275   0.94289   0.98173   0.98194
 Alpha virt. eigenvalues --    1.02990   1.03032   1.03731   1.04355   1.08444
 Alpha virt. eigenvalues --    1.08448   1.09865   1.09868   1.14960   1.21551
 Alpha virt. eigenvalues --    1.21617   1.30140   1.35998   1.36065   1.41069
 Alpha virt. eigenvalues --    1.50244   1.50247   1.50254   1.50676   1.56099
 Alpha virt. eigenvalues --    1.56101   1.58627   1.65830   1.79215   1.79255
 Alpha virt. eigenvalues --    1.94441   1.94467   1.96218   2.05428   2.05434
 Alpha virt. eigenvalues --    2.06778   2.74829   2.74857   2.77166   2.98381
 Alpha virt. eigenvalues --    2.99064   2.99091   3.32246   3.34339   3.34362
 Alpha virt. eigenvalues --    3.36385   3.37932   3.37963   3.42961   3.42996
 Alpha virt. eigenvalues --    3.43013   3.49596   3.69404   3.70446   3.71681
 Alpha virt. eigenvalues --    3.71709   3.74060   3.74061   3.94997   3.95054
 Alpha virt. eigenvalues --    4.00532   4.00603   4.05580   4.09576   4.09579
 Alpha virt. eigenvalues --    4.14865   4.15574   4.15579   4.37514   4.45858
 Alpha virt. eigenvalues --    4.56715   4.56723   4.59915   4.59928   4.79034
 Alpha virt. eigenvalues --    4.79679   5.04865   5.04920   5.09973   5.09993
 Alpha virt. eigenvalues --    5.17980   5.18001   5.28106   6.06113   6.18979
 Alpha virt. eigenvalues --    6.18991   6.40404  15.93360
  Beta  occ. eigenvalues --  -10.28537  -0.74243  -0.49751  -0.49743  -0.40133
  Beta virt. eigenvalues --   -0.00012   0.04197   0.05301   0.05305   0.06377
  Beta virt. eigenvalues --    0.13414   0.13421   0.13567   0.14895   0.19780
  Beta virt. eigenvalues --    0.19791   0.20248   0.20252   0.23038   0.28803
  Beta virt. eigenvalues --    0.28832   0.30413   0.33574   0.33575   0.34202
  Beta virt. eigenvalues --    0.35339   0.37499   0.38519   0.39552   0.39576
  Beta virt. eigenvalues --    0.41146   0.41147   0.43020   0.43028   0.47354
  Beta virt. eigenvalues --    0.57451   0.67440   0.67448   0.69267   0.74080
  Beta virt. eigenvalues --    0.74091   0.76187   0.76197   0.79147   0.79189
  Beta virt. eigenvalues --    0.80532   0.82554   0.86243   0.87146   0.87208
  Beta virt. eigenvalues --    0.88754   0.93198   0.93249   0.96028   0.96054
  Beta virt. eigenvalues --    0.97811   0.97818   0.98153   1.03554   1.04834
  Beta virt. eigenvalues --    1.04886   1.09463   1.09481   1.12295   1.13452
  Beta virt. eigenvalues --    1.13506   1.14052   1.29445   1.35912   1.35954
  Beta virt. eigenvalues --    1.49834   1.50661   1.50667   1.50781   1.56561
  Beta virt. eigenvalues --    1.56563   1.59271   1.67717   1.79772   1.79811
  Beta virt. eigenvalues --    1.95531   1.95557   1.95990   2.05695   2.05702
  Beta virt. eigenvalues --    2.08972   2.41516   2.76060   2.76092   2.83963
  Beta virt. eigenvalues --    3.00357   3.02399   3.02426   3.37070   3.37086
  Beta virt. eigenvalues --    3.37213   3.41022   3.41042   3.43437   3.44226
  Beta virt. eigenvalues --    3.44251   3.52452   3.65675   3.65693   3.69835
  Beta virt. eigenvalues --    3.69847   3.70748   3.71009   3.74272   3.74283
  Beta virt. eigenvalues --    3.81284   3.82519   3.82521   3.90920   4.01528
  Beta virt. eigenvalues --    4.01550   4.16530   4.16756   4.16763   4.45931
  Beta virt. eigenvalues --    4.57042   4.57049   4.60117   4.60131   4.78547
  Beta virt. eigenvalues --    4.81670   5.05247   5.05305   5.13050   5.13070
  Beta virt. eigenvalues --    5.18545   5.18564   5.29468   6.07361   6.19562
  Beta virt. eigenvalues --    6.19575   6.41304  15.95964
          Condensed to atoms (all electrons):
               1          2          3          4          5
     1  C    6.034086   0.341429   0.341448   0.341268   0.005431
     2  H    0.341429   0.288465   0.009173   0.009202  -0.001585
     3  H    0.341448   0.009173   0.288481   0.009202  -0.001571
     4  H    0.341268   0.009202   0.009202   0.288574  -0.001658
     5  H    0.005431  -0.001585  -0.001571  -0.001658   0.995713
          Atomic-Atomic Spin Densities.
               1          2          3          4          5
     1  C    0.993745   0.014258   0.014247   0.014160  -0.006869
     2  H    0.014258  -0.031290   0.002571   0.002597   0.001359
     3  H    0.014247   0.002571  -0.031352   0.002594   0.001346
     4  H    0.014160   0.002597   0.002594  -0.031271   0.001425
     5  H   -0.006869   0.001359   0.001346   0.001425  -0.995210
 Mulliken charges and spin densities:
               1          2
     1  C   -1.063663   1.029542
     2  H    0.353315  -0.010504
     3  H    0.353266  -0.010594
     4  H    0.353412  -0.010495
     5  H    0.003670  -0.997948
 Sum of Mulliken charges =  -0.00000   0.00000
 Mulliken charges and spin densities with hydrogens summed into heavy atoms:
               1          2
     1  C   -0.000000   0.000000
 Electronic spatial extent (au):  <R**2>=             74.4385
 Charge=             -0.0000 electrons
 Dipole moment (field-independent basis, Debye):
    X=              0.0003    Y=              0.0363    Z=              0.0001  Tot=              0.0363
 Quadrupole moment (field-independent basis, Debye-Ang):
   XX=             -8.6155   YY=            -10.6144   ZZ=             -8.6160
   XY=              0.0025   XZ=              0.0009   YZ=              0.0016
 Traceless Quadrupole moment (field-independent basis, Debye-Ang):
   XX=              0.6664   YY=             -1.3324   ZZ=              0.6660
   XY=              0.0025   XZ=              0.0009   YZ=              0.0016
 Octapole moment (field-independent basis, Debye-Ang**2):
  XXX=              0.0786  YYY=             15.0748  ZZZ=              0.9546  XYY=              0.0294
  XXY=              4.8651  XXZ=             -0.9140  XZZ=              0.0252  YZZ=              4.8669
  YYZ=              0.0115  XYZ=             -0.0016
 Hexadecapole moment (field-independent basis, Debye-Ang**3):
 XXXX=            -16.9173 YYYY=           -115.2568 ZZZZ=            -16.9148 XXXY=             -0.2686
 XXXZ=             -0.0009 YYYX=             -0.2879 YYYZ=             -0.1132 ZZZX=             -0.0000
 ZZZY=             -0.1065 XXYY=            -22.1087 XXZZ=             -5.6388 YYZZ=            -22.1081
 XXYZ=             -0.0332 YYXZ=             -0.0004 ZZXY=             -0.0895
 N-N= 1.106303148882D+01 E-N=-1.150065633569D+02  KE= 4.006014258180D+01
                          Isotropic Fermi Contact Couplings
        Atom                 a.u.       MegaHertz       Gauss      10(-4) cm-1
     1  C(13)              0.01597       8.97640       3.20300       2.99420
     2  H(1)              -0.01398     -31.23663     -11.14601     -10.41942
     3  H(1)              -0.01398     -31.24145     -11.14772     -10.42102
     4  H(1)              -0.01399     -31.25872     -11.15389     -10.42679
     5  H(1)              -0.29072    -649.74240    -231.84424    -216.73074
 --------------------------------------------------------
       Center         ----  Spin Dipole Couplings  ----
                      3XX-RR        3YY-RR        3ZZ-RR
 --------------------------------------------------------
     1   Atom       -0.561567      1.123177     -0.561610
     2   Atom       -0.074198     -0.003142      0.077341
     3   Atom        0.039494     -0.003126     -0.036368
     4   Atom        0.039451     -0.003224     -0.036227
     5   Atom       -0.004794      0.009589     -0.004795
 --------------------------------------------------------
                        XY            XZ            YZ
 --------------------------------------------------------
     1   Atom       -0.002907     -0.000010     -0.001667
     2   Atom       -0.000180     -0.000016     -0.002789
     3   Atom       -0.002509     -0.065589      0.001248
     4   Atom        0.002568      0.065657      0.001493
     5   Atom        0.000092     -0.000000      0.000036
 --------------------------------------------------------


 ---------------------------------------------------------------------------------
              Anisotropic Spin Dipole Couplings in Principal Axis System
 ---------------------------------------------------------------------------------

       Atom             a.u.   MegaHertz   Gauss  10(-4) cm-1        Axes

              Baa    -0.5616   -75.363   -26.892   -25.139  0.2935  0.0015  0.9559
     1 C(13)  Bbb    -0.5616   -75.357   -26.889   -25.136  0.9559  0.0014 -0.2935
              Bcc     1.1232   150.721    53.781    50.275 -0.0017  1.0000 -0.0010
 
              Baa    -0.0742   -39.589   -14.126   -13.205  1.0000  0.0025  0.0001
     2 H(1)   Bbb    -0.0032    -1.728    -0.617    -0.576 -0.0025  0.9994  0.0346
              Bcc     0.0774    41.317    14.743    13.782 -0.0001 -0.0346  0.9994
 
              Baa    -0.0742   -39.592   -14.127   -13.207  0.4997  0.0024  0.8662
     3 H(1)   Bbb    -0.0032    -1.720    -0.614    -0.574  0.0288  0.9994 -0.0194
              Bcc     0.0774    41.312    14.741    13.780  0.8657 -0.0347 -0.4994
 
              Baa    -0.0742   -39.573   -14.121   -13.200 -0.5003 -0.0001  0.8658
     4 H(1)   Bbb    -0.0033    -1.779    -0.635    -0.593 -0.0319  0.9993 -0.0183
              Bcc     0.0775    41.351    14.755    13.793  0.8652  0.0368  0.5000
 
              Baa    -0.0048    -2.559    -0.913    -0.853  0.8597 -0.0068  0.5107
     5 H(1)   Bbb    -0.0048    -2.558    -0.913    -0.853 -0.5107  0.0011  0.8598
              Bcc     0.0096     5.117     1.826     1.707  0.0064  1.0000  0.0025
 

 ---------------------------------------------------------------------------------

 DipInt: DoE/N= T T RetVal/Mat= T F Init=T NMatP=  1 IDeriv=0 Min/MaxMlt=  1  1
 Entering OneElI...
 Multipole integrals L=1 to 1 MinM= 0 MaxM= 0.
 Requested accuracy = 0.1000D-12
 PrsmSu:  NPrtUS=   1 ThrOK=F IAlg=1 NPAlg=1 LenDen=           0.
 Prism:   IPart=     0 DynPar=F LinDyn=F Incr=          12.
 PRISM was handed   419324352 working-precision words and  1274 shell-pairs
 IPart=  0 NShTot=        1274 NBatch=          40 AvBLen=        31.9
 PrSmSu:  NxtVal=             13.
 Entering OneElI...
 Calculate overlap and kinetic energy integrals
    NBasis = 155  MinDer = 1  MaxDer = 1
 Requested accuracy = 0.1000D-12
 PrsmSu:  NPrtUS=  32 ThrOK=T IAlg=1 NPAlg=1 LenDen=           0.
 Prism:   IPart=     0 DynPar=F LinDyn=F Incr=           1.
 PRISM was handed    13082659 working-precision words and  1275 shell-pairs
 PRISM was handed    13082659 working-precision words and  1275 shell-pairs
 PRISM was handed    13082659 working-precision words and  1275 shell-pairs
 PRISM was handed    13082659 working-precision words and  1275 shell-pairs
 PRISM was handed    13082659 working-precision words and  1275 shell-pairs
 PRISM was handed    13082659 working-precision words and  1275 shell-pairs
 PRISM was handed    13082659 working-precision words and  1275 shell-pairs
 PRISM was handed    13082659 working-precision words and  1275 shell-pairs
 PRISM was handed    13082659 working-precision words and  1275 shell-pairs
 PRISM was handed    13082659 working-precision words and  1275 shell-pairs
 PRISM was handed    13082659 working-precision words and  1275 shell-pairs
 PRISM was handed    13082659 working-precision words and  1275 shell-pairs
 PRISM was handed    13082659 working-precision words and  1275 shell-pairs
 PRISM was handed    13082659 working-precision words and  1275 shell-pairs
 PRISM was handed    13082659 working-precision words and  1275 shell-pairs
 PRISM was handed    13082659 working-precision words and  1275 shell-pairs
 PRISM was handed    13082659 working-precision words and  1275 shell-pairs
 PRISM was handed    13082659 working-precision words and  1275 shell-pairs
 PRISM was handed    13082659 working-precision words and  1275 shell-pairs
 PRISM was handed    13082659 working-precision words and  1275 shell-pairs
 PRISM was handed    13082659 working-precision words and  1275 shell-pairs
 PRISM was handed    13082659 working-precision words and  1275 shell-pairs
 PRISM was handed    13082659 working-precision words and  1275 shell-pairs
 PRISM was handed    13082659 working-precision words and  1275 shell-pairs
 PRISM was handed    13082659 working-precision words and  1275 shell-pairs
 PRISM was handed    13082659 working-precision words and  1275 shell-pairs
 PRISM was handed    13082659 working-precision words and  1275 shell-pairs
 PRISM was handed    13082659 working-precision words and  1275 shell-pairs
 PRISM was handed    13082659 working-precision words and  1275 shell-pairs
 PRISM was handed    13082659 working-precision words and  1275 shell-pairs
 PRISM was handed    13082659 working-precision words and  1275 shell-pairs
 PRISM was handed    13082659 working-precision words and  1275 shell-pairs
 IPart=  0 NShTot=          67 NBatch=          38 AvBLen=         1.8
 IPart= 28 NShTot=          31 NBatch=          11 AvBLen=         2.8
 IPart= 24 NShTot=          32 NBatch=          11 AvBLen=         2.9
 IPart= 25 NShTot=          32 NBatch=          11 AvBLen=         2.9
 IPart= 27 NShTot=          32 NBatch=          11 AvBLen=         2.9
 IPart= 23 NShTot=          34 NBatch=          11 AvBLen=         3.1
 IPart= 21 NShTot=          35 NBatch=          12 AvBLen=         2.9
 IPart= 16 NShTot=          35 NBatch=          12 AvBLen=         2.9
 IPart= 29 NShTot=          31 NBatch=          11 AvBLen=         2.8
 IPart= 14 NShTot=          40 NBatch=          17 AvBLen=         2.4
 IPart=  2 NShTot=          55 NBatch=          28 AvBLen=         2.0
 IPart=  4 NShTot=          48 NBatch=          21 AvBLen=         2.3
 IPart=  8 NShTot=          45 NBatch=          20 AvBLen=         2.3
 IPart= 18 NShTot=          35 NBatch=          12 AvBLen=         2.9
 IPart= 19 NShTot=          35 NBatch=          12 AvBLen=         2.9
 IPart= 12 NShTot=          40 NBatch=          17 AvBLen=         2.4
 IPart=  6 NShTot=          46 NBatch=          21 AvBLen=         2.2
 IPart= 10 NShTot=          45 NBatch=          20 AvBLen=         2.3
 IPart=  1 NShTot=          59 NBatch=          31 AvBLen=         1.9
 IPart= 13 NShTot=          40 NBatch=          17 AvBLen=         2.4
 IPart= 30 NShTot=          29 NBatch=           9 AvBLen=         3.2
 IPart=  3 NShTot=          50 NBatch=          23 AvBLen=         2.2
 IPart= 20 NShTot=          35 NBatch=          12 AvBLen=         2.9
 IPart=  9 NShTot=          45 NBatch=          20 AvBLen=         2.3
 IPart= 22 NShTot=          34 NBatch=          11 AvBLen=         3.1
 IPart= 17 NShTot=          35 NBatch=          12 AvBLen=         2.9
 IPart= 26 NShTot=          32 NBatch=          11 AvBLen=         2.9
 IPart= 31 NShTot=          29 NBatch=           9 AvBLen=         3.2
 IPart= 11 NShTot=          41 NBatch=          17 AvBLen=         2.4
 IPart= 15 NShTot=          36 NBatch=          13 AvBLen=         2.8
 IPart=  7 NShTot=          46 NBatch=          21 AvBLen=         2.2
 IPart=  5 NShTot=          46 NBatch=          21 AvBLen=         2.2
 PrSmSu:  NxtVal=             33.
 Entering OneElI...
 Calculate potential energy integrals
    NBasis = 155  MinDer = 1  MaxDer = 1
 Requested accuracy = 0.1000D-12
 PrsmSu:  NPrtUS=  32 ThrOK=T IAlg=1 NPAlg=1 LenDen=           0.
 Prism:   IPart=     0 DynPar=F LinDyn=F Incr=           1.
 PRISM was handed    13084359 working-precision words and  1257 shell-pairs
 PRISM was handed    13084359 working-precision words and  1257 shell-pairs
 PRISM was handed    13084359 working-precision words and  1257 shell-pairs
 PRISM was handed    13084359 working-precision words and  1257 shell-pairs
 PRISM was handed    13084359 working-precision words and  1257 shell-pairs
 PRISM was handed    13084359 working-precision words and  1257 shell-pairs
 PRISM was handed    13084359 working-precision words and  1257 shell-pairs
 PRISM was handed    13084359 working-precision words and  1257 shell-pairs
 PRISM was handed    13084359 working-precision words and  1257 shell-pairs
 PRISM was handed    13084359 working-precision words and  1257 shell-pairs
 PRISM was handed    13084359 working-precision words and  1257 shell-pairs
 PRISM was handed    13084359 working-precision words and  1257 shell-pairs
 PRISM was handed    13084359 working-precision words and  1257 shell-pairs
 PRISM was handed    13084359 working-precision words and  1257 shell-pairs
 PRISM was handed    13084359 working-precision words and  1257 shell-pairs
 PRISM was handed    13084359 working-precision words and  1257 shell-pairs
 PRISM was handed    13084359 working-precision words and  1257 shell-pairs
 PRISM was handed    13084359 working-precision words and  1257 shell-pairs
 PRISM was handed    13084359 working-precision words and  1257 shell-pairs
 PRISM was handed    13084359 working-precision words and  1257 shell-pairs
 PRISM was handed    13084359 working-precision words and  1257 shell-pairs
 PRISM was handed    13084359 working-precision words and  1257 shell-pairs
 PRISM was handed    13084359 working-precision words and  1257 shell-pairs
 PRISM was handed    13084359 working-precision words and  1257 shell-pairs
 PRISM was handed    13084359 working-precision words and  1257 shell-pairs
 PRISM was handed    13084359 working-precision words and  1257 shell-pairs
 PRISM was handed    13084359 working-precision words and  1257 shell-pairs
 PRISM was handed    13084359 working-precision words and  1257 shell-pairs
 PRISM was handed    13084359 working-precision words and  1257 shell-pairs
 PRISM was handed    13084359 working-precision words and  1257 shell-pairs
 PRISM was handed    13084359 working-precision words and  1257 shell-pairs
 PRISM was handed    13084359 working-precision words and  1257 shell-pairs
 IPart= 17 NShTot=         175 NBatch=          35 AvBLen=         5.0
 IPart= 15 NShTot=         175 NBatch=          35 AvBLen=         5.0
 IPart=  7 NShTot=         220 NBatch=          44 AvBLen=         5.0
 IPart= 20 NShTot=         175 NBatch=          35 AvBLen=         5.0
 IPart= 11 NShTot=         205 NBatch=          41 AvBLen=         5.0
 IPart= 31 NShTot=         145 NBatch=          29 AvBLen=         5.0
 IPart= 26 NShTot=         160 NBatch=          32 AvBLen=         5.0
 IPart= 22 NShTot=         165 NBatch=          33 AvBLen=         5.0
 IPart=  5 NShTot=         225 NBatch=          45 AvBLen=         5.0
 IPart= 24 NShTot=         165 NBatch=          33 AvBLen=         5.0
 IPart= 30 NShTot=         145 NBatch=          29 AvBLen=         5.0
 IPart= 13 NShTot=         200 NBatch=          40 AvBLen=         5.0
 IPart= 10 NShTot=         205 NBatch=          41 AvBLen=         5.0
 IPart= 27 NShTot=         160 NBatch=          32 AvBLen=         5.0
 IPart= 28 NShTot=         155 NBatch=          31 AvBLen=         5.0
 IPart=  9 NShTot=         220 NBatch=          44 AvBLen=         5.0
 IPart=  3 NShTot=         240 NBatch=          48 AvBLen=         5.0
 IPart= 14 NShTot=         185 NBatch=          37 AvBLen=         5.0
 IPart= 16 NShTot=         175 NBatch=          35 AvBLen=         5.0
 IPart=  2 NShTot=         275 NBatch=          55 AvBLen=         5.0
 IPart= 21 NShTot=         175 NBatch=          35 AvBLen=         5.0
 IPart=  8 NShTot=         220 NBatch=          44 AvBLen=         5.0
 IPart=  0 NShTot=         330 NBatch=          66 AvBLen=         5.0
 IPart= 18 NShTot=         175 NBatch=          35 AvBLen=         5.0
 IPart=  1 NShTot=         295 NBatch=          59 AvBLen=         5.0
 IPart= 23 NShTot=         165 NBatch=          33 AvBLen=         5.0
 IPart= 12 NShTot=         205 NBatch=          41 AvBLen=         5.0
 IPart= 25 NShTot=         160 NBatch=          32 AvBLen=         5.0
 IPart= 29 NShTot=         155 NBatch=          31 AvBLen=         5.0
 IPart= 19 NShTot=         175 NBatch=          35 AvBLen=         5.0
 IPart=  4 NShTot=         235 NBatch=          47 AvBLen=         5.0
 IPart=  6 NShTot=         225 NBatch=          45 AvBLen=         5.0
 PrSmSu:  NxtVal=             33.
 l701 out
 I=    0 X=   1.247323222766D-04 Y=   1.427367866382D-02 Z=   4.626142980068D-05
 I=    1 X=  -1.637788984710D-06 Y=   2.239350118373D-02 Z=   2.050191337125D-04
 I=    2 X=   2.555751199085D-04 Y=   6.544503142893D-02 Z=   2.313042855593D+00
 I=    3 X=   2.003805783714D+00 Y=   6.520672012808D-02 Z=  -1.155373961462D+00
 I=    4 X=  -2.002928616636D+00 Y=   6.038063468739D-02 Z=  -1.157432307605D+00
 I=    5 X=  -1.131104409250D-03 Y=  -2.134258874281D-01 Z=  -4.416056590153D-04
 ICntrl=      2127.
 Calling FoFJK, ICntrl=      2127 FMM=F ISym2X=0 I1Cent= 0 IOpClX= 1 NMat=1 NMatS=1 NMatT=0.
 FoFJK:  IHMeth= 1 ICntrl=    2127 DoSepK=T KAlg= 0 I1Cent=   0 FoldK=F
 IRaf=         1 NMat=   1 IRICut=       1 DoRegI=T DoRafI=F ISym2E= 0.
 FoFCou: FMM=F IPFlag=           0 FMFlag=      100000 FMFlg1=         800
         NFxFlg=           0 DoJE=F BraDBF=F KetDBF=F FulRan=T
         wScrn=  0.000000 ICntrl=    2527 IOpCl=  0 I1Cent=           0 NGrid=           0
         NMat0=    1 NMatS0=      1 NMatT0=    0 NMatD0=    1 NMtDS0=    0 NMtDT0=    0
 Symmetry not used in FoFCou.
 FoFCou:  KetSym=F NOpSet=  1 NOpAb=1 NOp=  1.
 FoFCou:  CnvScl= 1.00D+00 Thresh= 1.00D-10 IAcrcy=      10.
 PrismS was handed   419299280 working-precision words and  1273 shell-pairs
 FoFCou: LinMIO=F DoNuc=F BraDBF=F KetDBF=F HaveP=T PDBF=F HaveZ=T HaveW=F
         NIJTC =      10 NIJTAt=       0 NIJTCD=       0 NIJTT =      10
         IJTBeg=       1 IJTEnd=      10 KLTBeg=       1 KLTEnd=      10
         IPTBeg=       1 IPTEnd=      10 IPTBCv=       1 IPTECv=      10
         IZTBeg=       1 IZTEnd=      10 IZTBCv=       1 IZTECv=      10
         IWTBeg=      11 IWTEnd=      10 IWTBCv=      11 IWTECv=      10
         INTBeg=       1 INTEnd=       0 IFTBCv=       1 IFTECv=      10
 NCel replicated for PrismC:     1
 CoulSu:  IncDef=  1024 NBBP=         810901 NTPThr=   100 NPartT=   32 Incr=         253 LDynOK=F.
 CoulSu:  NPrtUS=  32 ThrOK=T IAlg=1 NPAlg=1 LenDen=           0 LWGrdD=           0 DoCopy=F.
 Enter PrismC: JobTyp=21 DoJE=F Cont=F.
 Enter PrismC: JobTyp=21 DoJE=F Cont=F.
 Enter PrismC: JobTyp=21 DoJE=F Cont=F.
 Enter PrismC: JobTyp=21 DoJE=F Cont=F.
 Enter PrismC: JobTyp=21 DoJE=F Cont=F.
 Enter PrismC: JobTyp=21 DoJE=F Cont=F.
 Enter PrismC: JobTyp=21 DoJE=F Cont=F.
 Enter PrismC: JobTyp=21 DoJE=F Cont=F.
 PrismC:  IPart=     0 DynPar=T LinDyn=F Incr=         253 UseFst=F UseS4=T IGathr=2.
 PrismC was handed    13083372 working-precision words and  1273 shell-pairs
 Enter PrismC: JobTyp=21 DoJE=F Cont=F.
 Enter PrismC: JobTyp=21 DoJE=F Cont=F.
 Enter PrismC: JobTyp=21 DoJE=F Cont=F.
 Enter PrismC: JobTyp=21 DoJE=F Cont=F.
 Enter PrismC: JobTyp=21 DoJE=F Cont=F.
 Enter PrismC: JobTyp=21 DoJE=F Cont=F.
 Enter PrismC: JobTyp=21 DoJE=F Cont=F.
 Enter PrismC: JobTyp=21 DoJE=F Cont=F.
 Enter PrismC: JobTyp=21 DoJE=F Cont=F.
 Enter PrismC: JobTyp=21 DoJE=F Cont=F.
 Enter PrismC: JobTyp=21 DoJE=F Cont=F.
 Enter PrismC: JobTyp=21 DoJE=F Cont=F.
 Enter PrismC: JobTyp=21 DoJE=F Cont=F.
 Enter PrismC: JobTyp=21 DoJE=F Cont=F.
 Enter PrismC: JobTyp=21 DoJE=F Cont=F.
 PrismC was handed    13083372 working-precision words and  1273 shell-pairs
 Enter PrismC: JobTyp=21 DoJE=F Cont=F.
 PrismC was handed    13083372 working-precision words and  1273 shell-pairs
 Enter PrismC: JobTyp=21 DoJE=F Cont=F.
 PrismC was handed    13083372 working-precision words and  1273 shell-pairs
 Enter PrismC: JobTyp=21 DoJE=F Cont=F.
 PrismC was handed    13083372 working-precision words and  1273 shell-pairs
 Enter PrismC: JobTyp=21 DoJE=F Cont=F.
 PrismC was handed    13083372 working-precision words and  1273 shell-pairs
 Enter PrismC: JobTyp=21 DoJE=F Cont=F.
 PrismC was handed    13083372 working-precision words and  1273 shell-pairs
 Enter PrismC: JobTyp=21 DoJE=F Cont=F.
 PrismC was handed    13083372 working-precision words and  1273 shell-pairs
 Enter PrismC: JobTyp=21 DoJE=F Cont=F.
 PrismC was handed    13083372 working-precision words and  1273 shell-pairs
 Enter PrismC: JobTyp=21 DoJE=F Cont=F.
 PrismC was handed    13083372 working-precision words and  1273 shell-pairs
 PrismC was handed    13083372 working-precision words and  1273 shell-pairs
 PrismC was handed    13083372 working-precision words and  1273 shell-pairs
 PrismC was handed    13083372 working-precision words and  1273 shell-pairs
 PrismC was handed    13083372 working-precision words and  1273 shell-pairs
 PrismC was handed    13083372 working-precision words and  1273 shell-pairs
 PrismC was handed    13083372 working-precision words and  1273 shell-pairs
 PrismC was handed    13083372 working-precision words and  1273 shell-pairs
 Enter PrismC: JobTyp=21 DoJE=F Cont=F.
 PrismC was handed    13083372 working-precision words and  1273 shell-pairs
 PrismC was handed    13083372 working-precision words and  1273 shell-pairs
 PrismC was handed    13083372 working-precision words and  1273 shell-pairs
 PrismC was handed    13083372 working-precision words and  1273 shell-pairs
 PrismC was handed    13083372 working-precision words and  1273 shell-pairs
 PrismC was handed    13083372 working-precision words and  1273 shell-pairs
 PrismC was handed    13083372 working-precision words and  1273 shell-pairs
 PrismC was handed    13083372 working-precision words and  1273 shell-pairs
 PrismC was handed    13083372 working-precision words and  1273 shell-pairs
 PrismC was handed    13083372 working-precision words and  1273 shell-pairs
 PrismC was handed    13083372 working-precision words and  1273 shell-pairs
 PrismC was handed    13083372 working-precision words and  1273 shell-pairs
 PrismC was handed    13083372 working-precision words and  1273 shell-pairs
 PrismC was handed    13083372 working-precision words and  1273 shell-pairs
 PrismC was handed    13083372 working-precision words and  1273 shell-pairs
 IPart=  9 NShTot=       24865 NShNF=       24865 NShFF=           0 NBatch=         234 AvBLen=       106.3
 IPart=  1 NShTot=       23530 NShNF=       23530 NShFF=           0 NBatch=         244 AvBLen=        96.4
 IPart= 16 NShTot=       25768 NShNF=       25768 NShFF=           0 NBatch=         239 AvBLen=       107.8
 IPart= 26 NShTot=       26762 NShNF=       26762 NShFF=           0 NBatch=         231 AvBLen=       115.9
 IPart=  3 NShTot=       23858 NShNF=       23858 NShFF=           0 NBatch=         236 AvBLen=       101.1
 IPart= 11 NShTot=       26785 NShNF=       26785 NShFF=           0 NBatch=         250 AvBLen=       107.1
 IPart= 15 NShTot=       21984 NShNF=       21984 NShFF=           0 NBatch=         240 AvBLen=        91.6
 IPart= 19 NShTot=       23345 NShNF=       23345 NShFF=           0 NBatch=         233 AvBLen=       100.2
 IPart=  7 NShTot=       23769 NShNF=       23769 NShFF=           0 NBatch=         217 AvBLen=       109.5
 IPart=  0 NShTot=       23609 NShNF=       23609 NShFF=           0 NBatch=         239 AvBLen=        98.8
 IPart= 29 NShTot=       23880 NShNF=       23880 NShFF=           0 NBatch=         233 AvBLen=       102.5
 IPart= 28 NShTot=       22021 NShNF=       22021 NShFF=           0 NBatch=         239 AvBLen=        92.1
 IPart= 31 NShTot=       19906 NShNF=       19906 NShFF=           0 NBatch=         241 AvBLen=        82.6
 IPart= 25 NShTot=       20992 NShNF=       20992 NShFF=           0 NBatch=         231 AvBLen=        90.9
 IPart= 10 NShTot=       22814 NShNF=       22814 NShFF=           0 NBatch=         242 AvBLen=        94.3
 IPart= 30 NShTot=       23038 NShNF=       23038 NShFF=           0 NBatch=         199 AvBLen=       115.8
 IPart= 18 NShTot=       20141 NShNF=       20141 NShFF=           0 NBatch=         187 AvBLen=       107.7
 IPart= 20 NShTot=       26250 NShNF=       26250 NShFF=           0 NBatch=         235 AvBLen=       111.7
 IPart= 21 NShTot=       24223 NShNF=       24223 NShFF=           0 NBatch=         230 AvBLen=       105.3
 IPart= 24 NShTot=       23634 NShNF=       23634 NShFF=           0 NBatch=         238 AvBLen=        99.3
 IPart= 13 NShTot=       22320 NShNF=       22320 NShFF=           0 NBatch=         253 AvBLen=        88.2
 IPart=  8 NShTot=       24778 NShNF=       24778 NShFF=           0 NBatch=         237 AvBLen=       104.5
 IPart=  6 NShTot=       22270 NShNF=       22270 NShFF=           0 NBatch=         250 AvBLen=        89.1
 IPart= 17 NShTot=       26607 NShNF=       26607 NShFF=           0 NBatch=         175 AvBLen=       152.0
 IPart= 27 NShTot=       27326 NShNF=       27326 NShFF=           0 NBatch=         246 AvBLen=       111.1
 IPart= 14 NShTot=       24248 NShNF=       24248 NShFF=           0 NBatch=         255 AvBLen=        95.1
 IPart= 22 NShTot=       23160 NShNF=       23160 NShFF=           0 NBatch=         249 AvBLen=        93.0
 IPart= 23 NShTot=       23341 NShNF=       23341 NShFF=           0 NBatch=         230 AvBLen=       101.5
 IPart=  5 NShTot=       25008 NShNF=       25008 NShFF=           0 NBatch=         254 AvBLen=        98.5
 IPart=  4 NShTot=       20315 NShNF=       20315 NShFF=           0 NBatch=         221 AvBLen=        91.9
 IPart= 12 NShTot=       21929 NShNF=       21929 NShFF=           0 NBatch=         240 AvBLen=        91.4
 IPart=  2 NShTot=       21852 NShNF=       21852 NShFF=           0 NBatch=         251 AvBLen=        87.1
 CoulSu:  NxtVal=         897898.
 FoFCou: FMM=F IPFlag=           0 FMFlag=      100000 FMFlg1=         800
         NFxFlg=           0 DoJE=F BraDBF=F KetDBF=F FulRan=T
         wScrn=  0.000000 ICntrl=    2127 IOpCl=  1 I1Cent=           0 NGrid=           0
         NMat0=    1 NMatS0=      0 NMatT0=    1 NMatD0=    1 NMtDS0=    0 NMtDT0=    0
         CW=    0.222036    0.777964
         WU=    0.000000   12.500000
 Symmetry not used in FoFCou.
 FoFCou:  KetSym=F NOpSet=  1 NOpAb=1 NOp=  1.
 FoFCou:  CnvScl= 1.00D+00 Thresh= 1.00D-10 IAcrcy=      10.
 PrismS was handed   419298040 working-precision words and  1273 shell-pairs
 FoFCou: LinMIO=F DoNuc=F BraDBF=F KetDBF=F HaveP=T PDBF=F HaveZ=T HaveW=F
         NIJTC =      10 NIJTAt=       0 NIJTCD=       0 NIJTT =      10
         IJTBeg=       1 IJTEnd=      10 KLTBeg=       1 KLTEnd=      10
         IPTBeg=       1 IPTEnd=      10 IPTBCv=       1 IPTECv=      10
         IZTBeg=       1 IZTEnd=      10 IZTBCv=       1 IZTECv=      10
         IWTBeg=      11 IWTEnd=      10 IWTBCv=      11 IWTECv=      10
         INTBeg=       1 INTEnd=       0 IFTBCv=       1 IFTECv=      10
 NCel replicated for PrismC:     1
 CoulSu:  IncDef=  1024 NBBP=         810901 NTPThr=   100 NPartT=   32 Incr=         253 LDynOK=F.
 CoulSu:  NPrtUS=  32 ThrOK=T IAlg=1 NPAlg=1 LenDen=           0 LWGrdD=           0 DoCopy=F.
 Enter PrismC: JobTyp=21 DoJE=F Cont=F.
 Linear combination for Coulomb/exchange, wScrn=  0.000000
 CW=    0.222036    0.777964
 WU=    0.000000   12.500000
 Enter PrismC: JobTyp=21 DoJE=F Cont=F.
 PrismC:  IPart=     0 DynPar=T LinDyn=F Incr=         253 UseFst=F UseS4=T IGathr=2.
 Enter PrismC: JobTyp=21 DoJE=F Cont=F.
 Linear combination for Coulomb/exchange, wScrn=  0.000000
 CW=    0.222036    0.777964
 WU=    0.000000   12.500000
 Enter PrismC: JobTyp=21 DoJE=F Cont=F.
 Linear combination for Coulomb/exchange, wScrn=  0.000000
 CW=    0.222036    0.777964
 WU=    0.000000   12.500000
 Enter PrismC: JobTyp=21 DoJE=F Cont=F.
 Linear combination for Coulomb/exchange, wScrn=  0.000000
 CW=    0.222036    0.777964
 WU=    0.000000   12.500000
 PrismC was handed    13083334 working-precision words and  1273 shell-pairs
 Enter PrismC: JobTyp=21 DoJE=F Cont=F.
 Linear combination for Coulomb/exchange, wScrn=  0.000000
 CW=    0.222036    0.777964
 WU=    0.000000   12.500000
 Enter PrismC: JobTyp=21 DoJE=F Cont=F.
 Linear combination for Coulomb/exchange, wScrn=  0.000000
 CW=    0.222036    0.777964
 WU=    0.000000   12.500000
 Linear combination for Coulomb/exchange, wScrn=  0.000000
 CW=    0.222036    0.777964
 WU=    0.000000   12.500000
 Enter PrismC: JobTyp=21 DoJE=F Cont=F.
 Linear combination for Coulomb/exchange, wScrn=  0.000000
 CW=    0.222036    0.777964
 WU=    0.000000   12.500000
 Enter PrismC: JobTyp=21 DoJE=F Cont=F.
 Linear combination for Coulomb/exchange, wScrn=  0.000000
 CW=    0.222036    0.777964
 WU=    0.000000   12.500000
 Enter PrismC: JobTyp=21 DoJE=F Cont=F.
 Linear combination for Coulomb/exchange, wScrn=  0.000000
 CW=    0.222036    0.777964
 WU=    0.000000   12.500000
 Enter PrismC: JobTyp=21 DoJE=F Cont=F.
 Linear combination for Coulomb/exchange, wScrn=  0.000000
 CW=    0.222036    0.777964
 WU=    0.000000   12.500000
 Enter PrismC: JobTyp=21 DoJE=F Cont=F.
 Linear combination for Coulomb/exchange, wScrn=  0.000000
 CW=    0.222036    0.777964
 WU=    0.000000   12.500000
 Enter PrismC: JobTyp=21 DoJE=F Cont=F.
 Linear combination for Coulomb/exchange, wScrn=  0.000000
 CW=    0.222036    0.777964
 WU=    0.000000   12.500000
 PrismC was handed    13083334 working-precision words and  1273 shell-pairs
 PrismC was handed    13083334 working-precision words and  1273 shell-pairs
 Enter PrismC: JobTyp=21 DoJE=F Cont=F.
 Linear combination for Coulomb/exchange, wScrn=  0.000000
 CW=    0.222036    0.777964
 WU=    0.000000   12.500000
 Enter PrismC: JobTyp=21 DoJE=F Cont=F.
 Linear combination for Coulomb/exchange, wScrn=  0.000000
 CW=    0.222036    0.777964
 WU=    0.000000   12.500000
 Enter PrismC: JobTyp=21 DoJE=F Cont=F.
 Linear combination for Coulomb/exchange, wScrn=  0.000000
 CW=    0.222036    0.777964
 WU=    0.000000   12.500000
 Enter PrismC: JobTyp=21 DoJE=F Cont=F.
 Linear combination for Coulomb/exchange, wScrn=  0.000000
 CW=    0.222036    0.777964
 WU=    0.000000   12.500000
 PrismC was handed    13083334 working-precision words and  1273 shell-pairs
 PrismC was handed    13083334 working-precision words and  1273 shell-pairs
 Enter PrismC: JobTyp=21 DoJE=F Cont=F.
 Linear combination for Coulomb/exchange, wScrn=  0.000000
 CW=    0.222036    0.777964
 WU=    0.000000   12.500000
 Enter PrismC: JobTyp=21 DoJE=F Cont=F.
 Linear combination for Coulomb/exchange, wScrn=  0.000000
 CW=    0.222036    0.777964
 WU=    0.000000   12.500000
 Enter PrismC: JobTyp=21 DoJE=F Cont=F.
 Linear combination for Coulomb/exchange, wScrn=  0.000000
 CW=    0.222036    0.777964
 WU=    0.000000   12.500000
 PrismC was handed    13083334 working-precision words and  1273 shell-pairs
 Enter PrismC: JobTyp=21 DoJE=F Cont=F.
 Linear combination for Coulomb/exchange, wScrn=  0.000000
 CW=    0.222036    0.777964
 WU=    0.000000   12.500000
 Enter PrismC: JobTyp=21 DoJE=F Cont=F.
 Linear combination for Coulomb/exchange, wScrn=  0.000000
 CW=    0.222036    0.777964
 WU=    0.000000   12.500000
 PrismC was handed    13083334 working-precision words and  1273 shell-pairs
 PrismC was handed    13083334 working-precision words and  1273 shell-pairs
 PrismC was handed    13083334 working-precision words and  1273 shell-pairs
 Enter PrismC: JobTyp=21 DoJE=F Cont=F.
 Linear combination for Coulomb/exchange, wScrn=  0.000000
 CW=    0.222036    0.777964
 WU=    0.000000   12.500000
 PrismC was handed    13083334 working-precision words and  1273 shell-pairs
 PrismC was handed    13083334 working-precision words and  1273 shell-pairs
 PrismC was handed    13083334 working-precision words and  1273 shell-pairs
 Enter PrismC: JobTyp=21 DoJE=F Cont=F.
 Linear combination for Coulomb/exchange, wScrn=  0.000000
 CW=    0.222036    0.777964
 WU=    0.000000   12.500000
 Enter PrismC: JobTyp=21 DoJE=F Cont=F.
 Linear combination for Coulomb/exchange, wScrn=  0.000000
 CW=    0.222036    0.777964
 WU=    0.000000   12.500000
 PrismC was handed    13083334 working-precision words and  1273 shell-pairs
 PrismC was handed    13083334 working-precision words and  1273 shell-pairs
 Enter PrismC: JobTyp=21 DoJE=F Cont=F.
 Linear combination for Coulomb/exchange, wScrn=  0.000000
 CW=    0.222036    0.777964
 WU=    0.000000   12.500000
 Enter PrismC: JobTyp=21 DoJE=F Cont=F.
 Linear combination for Coulomb/exchange, wScrn=  0.000000
 CW=    0.222036    0.777964
 WU=    0.000000   12.500000
 Enter PrismC: JobTyp=21 DoJE=F Cont=F.
 Linear combination for Coulomb/exchange, wScrn=  0.000000
 CW=    0.222036    0.777964
 WU=    0.000000   12.500000
 PrismC was handed    13083334 working-precision words and  1273 shell-pairs
 PrismC was handed    13083334 working-precision words and  1273 shell-pairs
 Enter PrismC: JobTyp=21 DoJE=F Cont=F.
 Linear combination for Coulomb/exchange, wScrn=  0.000000
 CW=    0.222036    0.777964
 WU=    0.000000   12.500000
 PrismC was handed    13083334 working-precision words and  1273 shell-pairs
 PrismC was handed    13083334 working-precision words and  1273 shell-pairs
 PrismC was handed    13083334 working-precision words and  1273 shell-pairs
 PrismC was handed    13083334 working-precision words and  1273 shell-pairs
 PrismC was handed    13083334 working-precision words and  1273 shell-pairs
 Enter PrismC: JobTyp=21 DoJE=F Cont=F.
 Linear combination for Coulomb/exchange, wScrn=  0.000000
 CW=    0.222036    0.777964
 WU=    0.000000   12.500000
 PrismC was handed    13083334 working-precision words and  1273 shell-pairs
 Enter PrismC: JobTyp=21 DoJE=F Cont=F.
 Linear combination for Coulomb/exchange, wScrn=  0.000000
 CW=    0.222036    0.777964
 WU=    0.000000   12.500000
 PrismC was handed    13083334 working-precision words and  1273 shell-pairs
 PrismC was handed    13083334 working-precision words and  1273 shell-pairs
 PrismC was handed    13083334 working-precision words and  1273 shell-pairs
 PrismC was handed    13083334 working-precision words and  1273 shell-pairs
 PrismC was handed    13083334 working-precision words and  1273 shell-pairs
 PrismC was handed    13083334 working-precision words and  1273 shell-pairs
 PrismC was handed    13083334 working-precision words and  1273 shell-pairs
 Enter PrismC: JobTyp=21 DoJE=F Cont=F.
 Linear combination for Coulomb/exchange, wScrn=  0.000000
 CW=    0.222036    0.777964
 WU=    0.000000   12.500000
 PrismC was handed    13083334 working-precision words and  1273 shell-pairs
 PrismC was handed    13083334 working-precision words and  1273 shell-pairs
 PrismC was handed    13083334 working-precision words and  1273 shell-pairs
 IPart= 17 NShTot=       25223 NShNF=       25223 NShFF=           0 NBatch=         256 AvBLen=        98.5
 IPart= 16 NShTot=       18631 NShNF=       18631 NShFF=           0 NBatch=         240 AvBLen=        77.6
 IPart= 20 NShTot=       25176 NShNF=       25176 NShFF=           0 NBatch=         301 AvBLen=        83.6
 IPart= 27 NShTot=       23764 NShNF=       23764 NShFF=           0 NBatch=         290 AvBLen=        81.9
 IPart= 25 NShTot=       23314 NShNF=       23314 NShFF=           0 NBatch=         291 AvBLen=        80.1
 IPart= 23 NShTot=       23961 NShNF=       23961 NShFF=           0 NBatch=         253 AvBLen=        94.7
 IPart=  8 NShTot=       24240 NShNF=       24240 NShFF=           0 NBatch=         307 AvBLen=        79.0
 IPart= 11 NShTot=       26527 NShNF=       26527 NShFF=           0 NBatch=         259 AvBLen=       102.4
 IPart=  7 NShTot=       22424 NShNF=       22424 NShFF=           0 NBatch=         248 AvBLen=        90.4
 IPart=  6 NShTot=       23434 NShNF=       23434 NShFF=           0 NBatch=         252 AvBLen=        93.0
 IPart=  9 NShTot=       23336 NShNF=       23336 NShFF=           0 NBatch=         305 AvBLen=        76.5
 IPart=  3 NShTot=       25446 NShNF=       25446 NShFF=           0 NBatch=         304 AvBLen=        83.7
 IPart=  5 NShTot=       21118 NShNF=       21118 NShFF=           0 NBatch=         298 AvBLen=        70.9
 IPart= 30 NShTot=       26528 NShNF=       26528 NShFF=           0 NBatch=         317 AvBLen=        83.7
 IPart=  4 NShTot=       22440 NShNF=       22440 NShFF=           0 NBatch=         188 AvBLen=       119.4
 IPart= 31 NShTot=       26280 NShNF=       26280 NShFF=           0 NBatch=         295 AvBLen=        89.1
 IPart=  2 NShTot=       20703 NShNF=       20703 NShFF=           0 NBatch=         297 AvBLen=        69.7
 IPart= 29 NShTot=       21238 NShNF=       21238 NShFF=           0 NBatch=         270 AvBLen=        78.7
 IPart= 19 NShTot=       24575 NShNF=       24575 NShFF=           0 NBatch=         299 AvBLen=        82.2
 IPart= 22 NShTot=       25873 NShNF=       25873 NShFF=           0 NBatch=         306 AvBLen=        84.6
 IPart= 28 NShTot=       23409 NShNF=       23409 NShFF=           0 NBatch=         253 AvBLen=        92.5
 IPart= 15 NShTot=       21868 NShNF=       21868 NShFF=           0 NBatch=         291 AvBLen=        75.1
 IPart= 10 NShTot=       27066 NShNF=       27066 NShFF=           0 NBatch=         304 AvBLen=        89.0
 IPart= 24 NShTot=       23713 NShNF=       23713 NShFF=           0 NBatch=         250 AvBLen=        94.9
 IPart=  0 NShTot=       21657 NShNF=       21657 NShFF=           0 NBatch=         259 AvBLen=        83.6
 IPart= 26 NShTot=       24030 NShNF=       24030 NShFF=           0 NBatch=         257 AvBLen=        93.5
 IPart= 18 NShTot=       24213 NShNF=       24213 NShFF=           0 NBatch=         307 AvBLen=        78.9
 IPart= 12 NShTot=       26041 NShNF=       26041 NShFF=           0 NBatch=         300 AvBLen=        86.8
 IPart= 14 NShTot=       20423 NShNF=       20423 NShFF=           0 NBatch=         302 AvBLen=        67.6
 IPart= 21 NShTot=       20889 NShNF=       20889 NShFF=           0 NBatch=         242 AvBLen=        86.3
 IPart= 13 NShTot=       22172 NShNF=       22172 NShFF=           0 NBatch=         264 AvBLen=        84.0
 IPart=  1 NShTot=       26016 NShNF=       26016 NShFF=           0 NBatch=         307 AvBLen=        84.7
 CoulSu:  NxtVal=         897898.
 ReadGW:  IGet=0 IStart=           1 Next=           1 LGW=           0.
 Remaining memory in FofDFT      399.95 Mw
 CkSvGd:  ISavGI=        -1 IRadAn=       5 IRASav=       5 ISavGd=        -1.
 CalDSu:  NPrtUS=  32 ThrOK=T IAlg=1 NPAlg=2 DoDPD=T LenP=       12090 LenD1P=             0.
 IPart=  0 IRanGd=          0 ScrnBf=T ScrnGd=T RCrit=4.00D+00 DoMicB=T.
 IPart= 20         2986 of         3364 points in       4 batches and       31 microbatches, Max-NSigAt=       5 Max-NSgAt2=       5
 IPart= 25         2951 of         3266 points in       4 batches and       27 microbatches, Max-NSigAt=       5 Max-NSgAt2=       5
 IPart= 13         3176 of         3568 points in       4 batches and       30 microbatches, Max-NSigAt=       5 Max-NSgAt2=       5
 IPart= 11         3425 of         3764 points in       4 batches and       10 microbatches, Max-NSigAt=       5 Max-NSgAt2=       5
 IPart= 18         2597 of         2718 points in       2 batches and       24 microbatches, Max-NSigAt=       5 Max-NSgAt2=       5
 IPart= 17         2700 of         2732 points in       2 batches and        9 microbatches, Max-NSigAt=       5 Max-NSgAt2=       5
 IPart= 12         2789 of         2964 points in       3 batches and       18 microbatches, Max-NSigAt=       5 Max-NSgAt2=       5
 IPart= 22         3255 of         3548 points in       4 batches and        9 microbatches, Max-NSigAt=       5 Max-NSgAt2=       5
 IPart= 28         3038 of         3142 points in       3 batches and        7 microbatches, Max-NSigAt=       5 Max-NSgAt2=       5
 IPart= 24         3165 of         3568 points in       4 batches and       28 microbatches, Max-NSigAt=       5 Max-NSgAt2=       5
 IPart= 31         2928 of         2928 points in       2 batches and        7 microbatches, Max-NSigAt=       5 Max-NSgAt2=       5
 IPart=  5         3129 of         3568 points in       4 batches and       26 microbatches, Max-NSigAt=       5 Max-NSgAt2=       5
 IPart=  2         3225 of         3568 points in       4 batches and       23 microbatches, Max-NSigAt=       5 Max-NSgAt2=       5
 IPart=  9         3249 of         3568 points in       4 batches and       44 microbatches, Max-NSigAt=       5 Max-NSgAt2=       5
 IPart= 14         3358 of         3596 points in       4 batches and       23 microbatches, Max-NSigAt=       5 Max-NSgAt2=       5
 IPart= 30         3249 of         3596 points in       4 batches and       34 microbatches, Max-NSigAt=       5 Max-NSgAt2=       5
 IPart= 27         3246 of         3246 points in       3 batches and       14 microbatches, Max-NSigAt=       5 Max-NSgAt2=       5
 IPart=  4         3350 of         3596 points in       4 batches and       19 microbatches, Max-NSigAt=       5 Max-NSgAt2=       5
 IPart=  7         3574 of         3596 points in       3 batches and        9 microbatches, Max-NSigAt=       5 Max-NSgAt2=       5
 IPart= 15         3592 of         3596 points in       3 batches and       10 microbatches, Max-NSigAt=       5 Max-NSgAt2=       5
 IPart= 29         3822 of         3822 points in       3 batches and        9 microbatches, Max-NSigAt=       5 Max-NSgAt2=       5
 IPart= 19         4431 of         4958 points in       6 batches and       26 microbatches, Max-NSigAt=       5 Max-NSgAt2=       5
 IPart=  3         3970 of         4144 points in       4 batches and       10 microbatches, Max-NSigAt=       5 Max-NSgAt2=       5
 IPart= 16         4191 of         4670 points in       6 batches and       49 microbatches, Max-NSigAt=       5 Max-NSgAt2=       5
 IPart=  8         3418 of         3524 points in       3 batches and       12 microbatches, Max-NSigAt=       5 Max-NSgAt2=       5
 IPart= 21         3754 of         3940 points in       4 batches and       28 microbatches, Max-NSigAt=       5 Max-NSgAt2=       5
 IPart= 26         3394 of         3568 points in       4 batches and       27 microbatches, Max-NSigAt=       5 Max-NSgAt2=       5
 IPart=  1         3874 of         4152 points in       5 batches and       36 microbatches, Max-NSigAt=       5 Max-NSgAt2=       5
 IPart=  0         3430 of         3592 points in       4 batches and       26 microbatches, Max-NSigAt=       5 Max-NSgAt2=       5
 IPart=  6         3493 of         3564 points in       3 batches and       11 microbatches, Max-NSigAt=       5 Max-NSgAt2=       5
 IPart= 10         4243 of         4804 points in       6 batches and       37 microbatches, Max-NSigAt=       5 Max-NSgAt2=       5
 IPart= 23         3508 of         3540 points in       3 batches and       13 microbatches, Max-NSigAt=       5 Max-NSgAt2=       5
 Forces at end of L703
 I=    0 X=   1.247323222766D-04 Y=   1.427367866382D-02 Z=   4.626142980068D-05
 I=    1 X=  -4.083967499056D-05 Y=   1.003899601137D-03 Z=  -2.963165025888D-05
 I=    2 X=   4.017661082473D-05 Y=  -1.097871376310D-04 Z=  -5.715875013879D-05
 I=    3 X=  -3.698773353467D-05 Y=  -1.085049701848D-04 Z=   6.601761879987D-05
 I=    4 X=   4.427792984529D-05 Y=  -1.185960781727D-04 Z=   2.378341708931D-05
 I=    5 X=  -6.627132148239D-06 Y=  -6.670114151483D-04 Z=  -3.010635498559D-06
 FrcOut:
 IF    =    36 IFX   =    51 IFXYZ =    66
 IFFX  =    81 IFFFX =   201 IFLen =    15
 IFFLen=   120 IFFFLn=     0 IEDerv=   201
 LEDerv=   773 IFroze=  1163 ICStrt= 39591
 FCEst1:  Generated internal coordinate force constants:
                1             2             3             4             5 
      1  0.722631D+00
      2  0.125894D-02  0.220938D+00
      3 -0.256195D-04  0.668714D-03  0.722692D+00
      4 -0.115765D+00 -0.347355D-03  0.502015D-04  0.771647D-01
      5 -0.347622D-03 -0.710900D-01  0.123809D-01  0.319362D-03  0.493825D-01
      6  0.000000D+00  0.000000D+00 -0.362127D+00  0.000000D+00  0.000000D+00
      7 -0.300619D+00 -0.156643D-03  0.106610D+00  0.192746D-01 -0.129387D-04
      8  0.105685D-01 -0.711090D-01 -0.645709D-02 -0.258993D-04  0.108408D-01
      9  0.106654D+00 -0.271618D-03 -0.177264D+00  0.334221D-01 -0.224358D-04
     10 -0.300438D+00 -0.749824D-03 -0.106699D+00  0.193031D-01  0.411547D-04
     11 -0.114692D-01 -0.709975D-01 -0.658826D-02  0.538764D-04  0.108409D-01
     12 -0.106692D+00 -0.394223D-03 -0.177436D+00 -0.334061D-01 -0.134223D-03
     13 -0.580891D-02 -0.512019D-05  0.635577D-04  0.228623D-04  0.000000D+00
     14 -0.105870D-04 -0.774145D-02 -0.430105D-05  0.000000D+00  0.257733D-04
     15  0.635539D-04 -0.287309D-05 -0.586457D-02 -0.662081D-04 -0.122243D-01
                6             7             8             9            10 
      6  0.362127D+00
      7  0.000000D+00  0.291006D+00
      8  0.000000D+00  0.142612D-03  0.493829D-01
      9  0.000000D+00 -0.123323D+00  0.247290D-03  0.148285D+00
     10  0.000000D+00 -0.964348D-02 -0.957536D-04 -0.167218D-01  0.290794D+00
     11  0.000000D+00  0.269200D-04  0.108409D-01  0.466793D-04  0.804288D-03
     12  0.000000D+00  0.166888D-01  0.102710D-03  0.289384D-01  0.123443D+00
     13  0.000000D+00 -0.182917D-04 -0.105895D-01 -0.317178D-04 -0.162123D-04
     14  0.000000D+00  0.000000D+00  0.444004D-04  0.000000D+00  0.000000D+00
     15  0.000000D+00  0.237070D-04  0.610709D-02  0.411079D-04 -0.226646D-04
               11            12            13            14            15 
     11  0.493859D-01
     12  0.425562D-03  0.148494D+00
     13  0.105841D-01 -0.334516D-04  0.582055D-02
     14 -0.701428D-04  0.000000D+00  0.103866D-04  0.774142D-02
     15  0.611602D-02  0.368067D-05  0.161179D-05  0.404299D-05  0.581978D-02
 Quadrupole    = 4.95474524D-01-9.90643060D-01 4.95168536D-01
                 1.84465132D-03 6.56766614D-04 1.17836513D-03
 -------------------------------------------------------------------
 Center     Atomic                   Forces (Hartrees/Bohr)
 Number     Number              X              Y              Z
 -------------------------------------------------------------------
      1        6           0.000040840   -0.001003900    0.000029632
      2        1          -0.000040177    0.000109787    0.000057159
      3        1           0.000036988    0.000108505   -0.000066018
      4        1          -0.000044278    0.000118596   -0.000023783
      5        1           0.000006627    0.000667011    0.000003011
 -------------------------------------------------------------------
 Cartesian Forces:  Max     0.001003900 RMS     0.000316896
 From PutF, contents of force:
   1   -0.1939941077D-04
   2   -0.1030758484D-04
   3    0.4989192451D-04
   4    0.7887322812D-04
   5   -0.2772427241D-05
   6    0.2094836945D-03
   7    0.6502228391D-04
   8    0.5715875014D-04
   9   -0.6670423680D-03
 -----------------------------------------------------------------------------------------------
                       Internal Coordinate Forces (Hartree/Bohr or radian)
  Cent   Atom   N1       Length/X         N2         Alpha/Y        N3         Beta/Z          J
 -----------------------------------------------------------------------------------------------
      1  C 
      2  H        1   0.000057(     1)
      3  H        1   0.000065(     2)      2   0.000079(     5)
      4  H        1   0.000050(     3)      2  -0.000003(     6)      3   0.000209(     8)     0
      5  H        1  -0.000667(     4)      2  -0.000010(     7)      3  -0.000019(     9)     0
 -----------------------------------------------------------------------------------------------
 Internal  Forces:  Max     0.000667042 RMS     0.000237001
 Force constants in Cartesian coordinates: 
                1             2             3             4             5 
      1  0.722631D+00
      2  0.125894D-02  0.220938D+00
      3 -0.256195D-04  0.668714D-03  0.722692D+00
      4 -0.115765D+00 -0.347355D-03  0.502015D-04  0.771647D-01
      5 -0.347622D-03 -0.710900D-01  0.123809D-01  0.319362D-03  0.493825D-01
      6  0.000000D+00  0.000000D+00 -0.362127D+00  0.000000D+00  0.000000D+00
      7 -0.300619D+00 -0.156643D-03  0.106610D+00  0.192746D-01 -0.129387D-04
      8  0.105685D-01 -0.711090D-01 -0.645709D-02 -0.258993D-04  0.108408D-01
      9  0.106654D+00 -0.271618D-03 -0.177264D+00  0.334221D-01 -0.224358D-04
     10 -0.300438D+00 -0.749824D-03 -0.106699D+00  0.193031D-01  0.411547D-04
     11 -0.114692D-01 -0.709975D-01 -0.658826D-02  0.538764D-04  0.108409D-01
     12 -0.106692D+00 -0.394223D-03 -0.177436D+00 -0.334061D-01 -0.134223D-03
     13 -0.580891D-02 -0.512019D-05  0.635577D-04  0.228623D-04  0.000000D+00
     14 -0.105870D-04 -0.774145D-02 -0.430105D-05  0.000000D+00  0.257733D-04
     15  0.635539D-04 -0.287309D-05 -0.586457D-02 -0.662081D-04 -0.122243D-01
                6             7             8             9            10 
      6  0.362127D+00
      7  0.000000D+00  0.291006D+00
      8  0.000000D+00  0.142612D-03  0.493829D-01
      9  0.000000D+00 -0.123323D+00  0.247290D-03  0.148285D+00
     10  0.000000D+00 -0.964348D-02 -0.957536D-04 -0.167218D-01  0.290794D+00
     11  0.000000D+00  0.269200D-04  0.108409D-01  0.466793D-04  0.804288D-03
     12  0.000000D+00  0.166888D-01  0.102710D-03  0.289384D-01  0.123443D+00
     13  0.000000D+00 -0.182917D-04 -0.105895D-01 -0.317178D-04 -0.162123D-04
     14  0.000000D+00  0.000000D+00  0.444004D-04  0.000000D+00  0.000000D+00
     15  0.000000D+00  0.237070D-04  0.610709D-02  0.411079D-04 -0.226646D-04
               11            12            13            14            15 
     11  0.493859D-01
     12  0.425562D-03  0.148494D+00
     13  0.105841D-01 -0.334516D-04  0.582055D-02
     14 -0.701428D-04  0.000000D+00  0.103866D-04  0.774142D-02
     15  0.611602D-02  0.368067D-05  0.161179D-05  0.404299D-05  0.581978D-02
 FCInt: Cartesian first derivatives: 
                 1             2             3             4             5 
      1   0.000000D+00  0.000000D+00  0.000000D+00  0.000000D+00  0.000000D+00
      2   0.000000D+00  0.000000D+00  0.000000D+00  0.000000D+00  0.000000D+00
      3   0.000000D+00  0.000000D+00  0.000000D+00  0.000000D+00  0.000000D+00
 FCInt: Cartesian force constants: 
                1             2             3             4             5 
      1  0.722631D+00
      2  0.125894D-02  0.220938D+00
      3 -0.256195D-04  0.668714D-03  0.722692D+00
      4 -0.115765D+00 -0.347355D-03  0.502015D-04  0.771647D-01
      5 -0.347622D-03 -0.710900D-01  0.123809D-01  0.319362D-03  0.493825D-01
      6  0.000000D+00  0.000000D+00 -0.362127D+00  0.000000D+00  0.000000D+00
      7 -0.300619D+00 -0.156643D-03  0.106610D+00  0.192746D-01 -0.129387D-04
      8  0.105685D-01 -0.711090D-01 -0.645709D-02 -0.258993D-04  0.108408D-01
      9  0.106654D+00 -0.271618D-03 -0.177264D+00  0.334221D-01 -0.224358D-04
     10 -0.300438D+00 -0.749824D-03 -0.106699D+00  0.193031D-01  0.411547D-04
     11 -0.114692D-01 -0.709975D-01 -0.658826D-02  0.538764D-04  0.108409D-01
     12 -0.106692D+00 -0.394223D-03 -0.177436D+00 -0.334061D-01 -0.134223D-03
     13 -0.580891D-02 -0.512019D-05  0.635577D-04  0.228623D-04  0.000000D+00
     14 -0.105870D-04 -0.774145D-02 -0.430105D-05  0.000000D+00  0.257733D-04
     15  0.635539D-04 -0.287309D-05 -0.586457D-02 -0.662081D-04 -0.122243D-01
                6             7             8             9            10 
      6  0.362127D+00
      7  0.000000D+00  0.291006D+00
      8  0.000000D+00  0.142612D-03  0.493829D-01
      9  0.000000D+00 -0.123323D+00  0.247290D-03  0.148285D+00
     10  0.000000D+00 -0.964348D-02 -0.957536D-04 -0.167218D-01  0.290794D+00
     11  0.000000D+00  0.269200D-04  0.108409D-01  0.466793D-04  0.804288D-03
     12  0.000000D+00  0.166888D-01  0.102710D-03  0.289384D-01  0.123443D+00
     13  0.000000D+00 -0.182917D-04 -0.105895D-01 -0.317178D-04 -0.162123D-04
     14  0.000000D+00  0.000000D+00  0.444004D-04  0.000000D+00  0.000000D+00
     15  0.000000D+00  0.237070D-04  0.610709D-02  0.411079D-04 -0.226646D-04
               11            12            13            14            15 
     11  0.493859D-01
     12  0.425562D-03  0.148494D+00
     13  0.105841D-01 -0.334516D-04  0.582055D-02
     14 -0.701428D-04  0.000000D+00  0.103866D-04  0.774142D-02
     15  0.611602D-02  0.368067D-05  0.161179D-05  0.404299D-05  0.581978D-02
 Internal force constants: 
                1             2             3             4             5 
      1  0.362127D+00
      2  0.000000D+00  0.362127D+00
      3  0.000000D+00  0.000000D+00  0.362127D+00
      4  0.000000D+00  0.000000D+00  0.000000D+00  0.774149D-02
      5  0.000000D+00  0.000000D+00  0.000000D+00  0.000000D+00  0.320341D+00
      6  0.000000D+00  0.000000D+00  0.000000D+00  0.000000D+00  0.160169D+00
      7  0.000000D+00  0.000000D+00  0.000000D+00  0.000000D+00  0.621226D-03
      8  0.000000D+00  0.000000D+00  0.000000D+00  0.000000D+00 -0.426685D-03
      9  0.000000D+00  0.000000D+00  0.000000D+00  0.000000D+00 -0.479320D-03
                6             7             8             9 
      6  0.320342D+00
      7  0.556499D-04  0.240249D+00
      8 -0.458173D-04 -0.693248D-01  0.153694D+00
      9 -0.505776D-03  0.656332D-04 -0.119972D+00  0.240278D+00
 Frcnst in PutFF: 
                1             2             3             4             5 
      1  0.240278D+00
      2  0.656332D-04  0.240249D+00
      3  0.000000D+00  0.000000D+00  0.362127D+00
      4 -0.479320D-03  0.621226D-03  0.000000D+00  0.320341D+00
      5 -0.505776D-03  0.556499D-04  0.000000D+00  0.160169D+00  0.320342D+00
      6 -0.119972D+00 -0.693248D-01  0.000000D+00 -0.426685D-03 -0.458173D-04
      7  0.000000D+00  0.000000D+00  0.000000D+00  0.000000D+00  0.000000D+00
      8  0.000000D+00  0.000000D+00  0.000000D+00  0.000000D+00  0.000000D+00
      9  0.000000D+00  0.000000D+00  0.000000D+00  0.000000D+00  0.000000D+00
                6             7             8             9 
      6  0.153694D+00
      7  0.000000D+00  0.362127D+00
      8  0.000000D+00  0.000000D+00  0.362127D+00
      9  0.000000D+00  0.000000D+00  0.000000D+00  0.774149D-02
 Force constants in internal coordinates: 
                1             2             3             4             5 
      1  0.362127D+00
      2  0.000000D+00  0.362127D+00
      3  0.000000D+00  0.000000D+00  0.362127D+00
      4  0.000000D+00  0.000000D+00  0.000000D+00  0.774149D-02
      5  0.000000D+00  0.000000D+00  0.000000D+00  0.000000D+00  0.320341D+00
      6  0.000000D+00  0.000000D+00  0.000000D+00  0.000000D+00  0.160169D+00
      7  0.000000D+00  0.000000D+00  0.000000D+00  0.000000D+00  0.621226D-03
      8  0.000000D+00  0.000000D+00  0.000000D+00  0.000000D+00 -0.426685D-03
      9  0.000000D+00  0.000000D+00  0.000000D+00  0.000000D+00 -0.479320D-03
                6             7             8             9 
      6  0.320342D+00
      7  0.556499D-04  0.240249D+00
      8 -0.458173D-04 -0.693248D-01  0.153694D+00
      9 -0.505776D-03  0.656332D-04 -0.119972D+00  0.240278D+00
 Final forces over variables, Energy=-4.03419361D+01:
 -1.93994108D-05-1.03075848D-05 4.98919245D-05 7.88732281D-05
 -2.77242724D-06 2.09483694D-04 6.50222839D-05 5.71587501D-05
 -6.67042368D-04

 GradGradGradGradGradGradGradGradGradGradGradGradGradGradGradGradGradGrad
 Berny optimization.
 Search for a local minimum.
 Step number   1 out of a maximum of   50
 All quantities printed in internal units (Hartrees-Bohrs-Radians)
 Second derivative matrix not updated -- first step.
 The second derivative matrix:
                         BABS1     AABS1      R3        A2        A3
           BABS1        0.24028
           AABS1        0.00007   0.24025
           R3           0.00000   0.00000   0.36213
           A2          -0.00048   0.00062  -0.00000   0.32034
           A3          -0.00051   0.00006  -0.00000   0.16017   0.32034
           D3          -0.11997  -0.06932   0.00000  -0.00043  -0.00005
           R2          -0.00000   0.00000   0.00000   0.00000   0.00000
           R1           0.00000   0.00000   0.00000   0.00000   0.00000
           RTS          0.00000   0.00000  -0.00000  -0.00000  -0.00000
                          D3        R2        R1        RTS
           D3           0.15369
           R2          -0.00000   0.36213
           R1           0.00000   0.00000   0.36213
           RTS          0.00000   0.00000   0.00000   0.00774
 ITU=  0
     Eigenvalues ---    0.24020   0.240331000.000001000.000001000.00000
     Eigenvalues --- 1000.000001000.000001000.000001000.00000
 RFO step:  Lambda= 0.00000000D+00 EMin= 2.40196165D-01
 Linear search not attempted -- first point.
 Variable       Old X    -DE/DX   Delta X   Delta X   Delta X     New X
                                 (Linear)    (Quad)   (Total)
  BABS1       1.57621  -0.00002   0.00000  -0.00008  -0.00008   1.57612
  AABS1       1.57290  -0.00001   0.00000  -0.00004  -0.00004   1.57286
    R3        2.03750   0.00005   0.00000   0.00000   0.00000   2.03750
    A2        2.09391   0.00008   0.00000   0.00000   0.00000   2.09391
    A3        2.09476  -0.00000   0.00000   0.00000   0.00000   2.09476
    D3        3.13823   0.00021   0.00000   0.00000   0.00000   3.13823
    R2        2.03750   0.00007   0.00000   0.00000   0.00000   2.03750
    R1        2.03750   0.00006   0.00000   0.00000   0.00000   2.03750
   RTS        6.42507  -0.00067   0.00000   0.00000   0.00000   6.42507
         Item               Value     Threshold  Converged?
 Maximum Force            0.000019     0.000450     YES
 RMS     Force            0.000016     0.000300     YES
 Maximum Displacement     0.000081     0.001800     YES
 RMS     Displacement     0.000030     0.001200     YES
 Predicted change in Energy=-1.004020D-09
 Optimization completed.
    -- Stationary point found.
                       ----------------------------
                       !   Optimized Parameters   !
                       ! (Angstroms and Degrees)  !
 ----------------------                            ----------------------
 !      Name          Value   Derivative information (Atomic Units)     !
 ------------------------------------------------------------------------
 !      BABS1       90.3099   -DE/DX =    0.0                           !
 !      AABS1       90.1208   -DE/DX =    0.0                           !
 !       R3          1.0782   -DE/DX =    0.0                           !
 !       A2        119.9721   -DE/DX =    0.0001                        !
 !       A3        120.0207   -DE/DX =    0.0                           !
 !       D3        179.8076   -DE/DX =    0.0002                        !
 !       R2          1.0782   -DE/DX =    0.0001                        !
 !       R1          1.0782   -DE/DX =    0.0001                        !
 !       RTS         3.4      -DE/DX =   -0.0007                        !
 ------------------------------------------------------------------------
 GradGradGradGradGradGradGradGradGradGradGradGradGradGradGradGradGradGrad

 ---------------------------------------------------------------------------------------------------
                            Z-MATRIX (ANGSTROMS AND DEGREES)
   CD    Cent   Atom    N1       Length/X        N2       Alpha/Y        N3        Beta/Z          J
 ---------------------------------------------------------------------------------------------------
      1      1  C 
      2      2  H        1   1.078200(     1)
      3      3  H        1   1.078200(     2)      2  119.972(     5)
      4      4  H        1   1.078200(     3)      2  120.021(     6)      3  179.808(     8)      0
      5      5  H        1   3.400000(     4)      2   90.121(     7)      3   90.310(     9)      0
 ---------------------------------------------------------------------------------------------------
                         Z-Matrix orientation:                         
 ---------------------------------------------------------------------
 Center     Atomic      Atomic             Coordinates (Angstroms)
 Number     Number       Type             X           Y           Z
 ---------------------------------------------------------------------
      1          6           0        0.000000    0.000000    0.000000
      2          1           0        0.000000    0.000000    1.078200
      3          1           0        0.934011    0.000000   -0.538645
      4          1           0       -0.933548   -0.003135   -0.539437
      5          1           0       -0.018390   -3.399943   -0.007168
 ---------------------------------------------------------------------
                    Distance matrix (angstroms):
                    1          2          3          4          5
     1  C    0.000000
     2  H    1.078200   0.000000
     3  H    1.078200   1.867235   0.000000
     4  H    1.078200   1.867692   1.867562   0.000000
     5  H    3.400000   3.569030   3.570595   3.557967   0.000000
 Symmetry turned off by external request.
 Stoichiometry    CH4
 Framework group  C1[X(CH4)]
 Deg. of freedom     9
 Full point group                 C1      NOp   1
 Rotational constants (GHZ):    143.7897888     39.8761610     39.8732764

 Test job not archived.
 1\1\GINC-NODE-6-7\POpt\UwB97XD\Aug-CC-pVTZ\C1H4\CAVALLOTTI\03-Jun-2023
 \1\\# uwb97xd/aug-cc-pvtz opt=(noeig,intern,maxcyc=50) # int=ultrafine
  nosym iop(7/33=1) guess=(mix,always)\\geom 0\\0,1\C\H,1,R1\H,1,R2,2,A
 2\H,1,R3,2,A3,3,D3,0\H,1,RTS,2,AABS1,3,BABS1,0\\BABS1=90.3099\AABS1=90
 .1208\R3=1.0782\A2=119.9721\A3=120.0207\D3=179.8076\R2=1.0782\R1=1.078
 2\RTS=3.4\\Version=EM64L-G09RevD.01\HF=-40.3419361\S2=0.991166\S2-1=0.
 \S2A=0.030721\RMSD=4.570e-09\RMSF=3.169e-04\Dipole=0.0001247,0.0142737
 ,0.0000463\Quadrupole=0.4954745,-0.9906431,0.4951685,0.0018447,0.00065
 68,0.0011784\PG=C01 [X(C1H4)]\\@


 MODELS ARE TO BE USED, NOT BELIEVED.

    -- PARAPHRASED BY H. THIEL IN "PRINCIPLES OF ECONOMETRICS"
 Job cpu time:       0 days  0 hours  2 minutes 12.9 seconds.
 File lengths (MBytes):  RWF=     66 Int=      0 D2E=      0 Chk=      3 Scr=      1
 Normal termination of Gaussian 09 at Sat Jun  3 08:59:55 2023.
