 Entering Gaussian System, Link 0=g09
 Input=geom.com
 Output=geom.log
 Initial command:
 /software/cinetica/g09d1/g09d01/d01/build-node-6-2-59348/src/main/l1.exe "/scratch/cc/140689/Gau-253828.inp" -scrdir="/scratch/cc/140689/"
 Entering Link 1 = /software/cinetica/g09d1/g09d01/d01/build-node-6-2-59348/src/main/l1.exe PID=    253829.
  
 Copyright (c) 1988,1990,1992,1993,1995,1998,2003,2009,2013,
            Gaussian, Inc.  All Rights Reserved.
  
 This is part of the Gaussian(R) 09 program.  It is based on
 the Gaussian(R) 03 system (copyright 2003, Gaussian, Inc.),
 the Gaussian(R) 98 system (copyright 1998, Gaussian, Inc.),
 the Gaussian(R) 94 system (copyright 1995, Gaussian, Inc.),
 the Gaussian 92(TM) system (copyright 1992, Gaussian, Inc.),
 the Gaussian 90(TM) system (copyright 1990, Gaussian, Inc.),
 the Gaussian 88(TM) system (copyright 1988, Gaussian, Inc.),
 the Gaussian 86(TM) system (copyright 1986, Carnegie Mellon
 University), and the Gaussian 82(TM) system (copyright 1983,
 Carnegie Mellon University). Gaussian is a federally registered
 trademark of Gaussian, Inc.
  
 This software contains proprietary and confidential information,
 including trade secrets, belonging to Gaussian, Inc.
  
 This software is provided under written license and may be
 used, copied, transmitted, or stored only in accord with that
 written license.
  
 The following legend is applicable only to US Government
 contracts under FAR:
  
                    RESTRICTED RIGHTS LEGEND
  
 Use, reproduction and disclosure by the US Government is
 subject to restrictions as set forth in subparagraphs (a)
 and (c) of the Commercial Computer Software - Restricted
 Rights clause in FAR 52.227-19.
  
 Gaussian, Inc.
 340 Quinnipiac St., Bldg. 40, Wallingford CT 06492
  
  
 ---------------------------------------------------------------
 Warning -- This program may not be used in any manner that
 competes with the business of Gaussian, Inc. or will provide
 assistance to any competitor of Gaussian, Inc.  The licensee
 of this program is prohibited from giving any competitor of
 Gaussian, Inc. access to this program.  By using this program,
 the user acknowledges that Gaussian, Inc. is engaged in the
 business of creating and licensing software in the field of
 computational chemistry and represents and warrants to the
 licensee that it is not a competitor of Gaussian, Inc. and that
 it will not use this program in any manner prohibited above.
 ---------------------------------------------------------------
  

 Cite this work as:
 Gaussian 09, Revision D.01,
 M. J. Frisch, G. W. Trucks, H. B. Schlegel, G. E. Scuseria, 
 M. A. Robb, J. R. Cheeseman, G. Scalmani, V. Barone, B. Mennucci, 
 G. A. Petersson, H. Nakatsuji, M. Caricato, X. Li, H. P. Hratchian, 
 A. F. Izmaylov, J. Bloino, G. Zheng, J. L. Sonnenberg, M. Hada, 
 M. Ehara, K. Toyota, R. Fukuda, J. Hasegawa, M. Ishida, T. Nakajima, 
 Y. Honda, O. Kitao, H. Nakai, T. Vreven, J. A. Montgomery, Jr., 
 J. E. Peralta, F. Ogliaro, M. Bearpark, J. J. Heyd, E. Brothers, 
 K. N. Kudin, V. N. Staroverov, T. Keith, R. Kobayashi, J. Normand, 
 K. Raghavachari, A. Rendell, J. C. Burant, S. S. Iyengar, J. Tomasi, 
 M. Cossi, N. Rega, J. M. Millam, M. Klene, J. E. Knox, J. B. Cross, 
 V. Bakken, C. Adamo, J. Jaramillo, R. Gomperts, R. E. Stratmann, 
 O. Yazyev, A. J. Austin, R. Cammi, C. Pomelli, J. W. Ochterski, 
 R. L. Martin, K. Morokuma, V. G. Zakrzewski, G. A. Voth, 
 P. Salvador, J. J. Dannenberg, S. Dapprich, A. D. Daniels, 
 O. Farkas, J. B. Foresman, J. V. Ortiz, J. Cioslowski, 
 and D. J. Fox, Gaussian, Inc., Wallingford CT, 2013.
 
 ******************************************
 Gaussian 09:  EM64L-G09RevD.01 24-Apr-2013
                 3-Jun-2023 
 ******************************************
 %mem=400MW
 %chk=tmp
 %NProcShared= 32
 Will use up to   32 processors via shared memory.
 ----------------------------------------------------------------------
 # uwb97xd/aug-cc-pvtz opt=(noeig,intern,maxcyc=50) # int=ultrafine nos
 ym freq iop(7/33=1) guess=(mix,always)
 ----------------------------------------------------------------------
 1/6=50,10=7,11=1,14=-1,18=40,26=4,38=1/1,3;
 2/12=2,15=1,17=6,18=5,29=3,40=1/2;
 3/5=16,6=1,7=10,11=2,16=1,25=1,30=1,71=1,74=-58,75=-5,116=2/1,2,3;
 4/13=-1/1;
 5/5=2,38=5/2;
 6/7=2,8=2,9=2,10=2,28=1/1;
 7/29=1,30=1,33=1/1,2,3,16;
 1/6=50,10=7,11=1,14=-1,18=40,26=4/3(2);
 2/15=1,29=3/2;
 99//99;
 2/15=1,29=3/2;
 3/5=16,6=1,7=10,11=2,16=1,25=1,30=1,71=1,74=-58,75=-5,116=2/1,2,3;
 4/13=-1/1;
 5/5=2,38=5/2;
 7/30=1,33=1/1,2,3,16;
 1/6=50,11=1,14=-1,18=40,26=4/3(-5);
 2/15=1,29=3/2;
 6/7=2,8=2,9=2,10=2,19=2,28=1/1;
 99/9=1/99;
 ------
 geom 0
 ------
 Symbolic Z-matrix:
 Charge =  0 Multiplicity = 1
 C1
 H2                   C1   R1
 H3                   C1   R2       H2   A2
 H4                   C1   R3       H2   A3       H3   D3       0
 H21                  C1   BB       H2   ANG1     H3   DH1      0
       Variables:
  R1                    1.0791                   
  R2                    1.0791                   
  R3                    1.0791                   
  A2                  117.1143                   
  A3                  117.1221                   
  D3                  213.1119                   
  DH1                 106.5501                   
  ANG1                 99.8829                   
       Constants:
  BB                    3.4                      
 

 GradGradGradGradGradGradGradGradGradGradGradGradGradGradGradGradGradGrad
 Berny optimization.
 Initialization pass.
                       ----------------------------
                       !    Initial Parameters    !
                       ! (Angstroms and Degrees)  !
 ----------------------                            ----------------------
 !      Name          Value   Derivative information (Atomic Units)     !
 ------------------------------------------------------------------------
 !       R1          1.0791   estimate D2E/DX2                          !
 !       R2          1.0791   estimate D2E/DX2                          !
 !       R3          1.0791   estimate D2E/DX2                          !
 !       A2        117.1143   estimate D2E/DX2                          !
 !       A3        117.1221   estimate D2E/DX2                          !
 !       D3        213.1119   estimate D2E/DX2                          !
 !       DH1       106.5501   estimate D2E/DX2                          !
 !      ANG1        99.8829   estimate D2E/DX2                          !
 !       BB          3.4      Frozen                                    !
 ------------------------------------------------------------------------
 Trust Radius=3.00D-01 FncErr=1.00D-07 GrdErr=1.00D-06
 Number of steps in this run=     50 maximum allowed number of steps=    100.
 GradGradGradGradGradGradGradGradGradGradGradGradGradGradGradGradGradGrad

 ---------------------------------------------------------------------------------------------------
                            Z-MATRIX (ANGSTROMS AND DEGREES)
   CD    Cent   Atom    N1       Length/X        N2       Alpha/Y        N3        Beta/Z          J
 ---------------------------------------------------------------------------------------------------
      1      1  C 
      2      2  H        1   1.079100(     1)
      3      3  H        1   1.079100(     2)      2  117.114(     5)
      4      4  H        1   1.079100(     3)      2  117.122(     6)      3  213.112(     8)      0
      5      5  H        1   3.400000(     4)      2   99.883(     7)      3  106.550(     9)      0
 ---------------------------------------------------------------------------------------------------
                         Z-Matrix orientation:                         
 ---------------------------------------------------------------------
 Center     Atomic      Atomic             Coordinates (Angstroms)
 Number     Number       Type             X           Y           Z
 ---------------------------------------------------------------------
      1          6           0        0.000000    0.000000    0.000000
      2          1           0        0.000000    0.000000    1.079100
      3          1           0        0.960506    0.000000   -0.491818
      4          1           0       -0.804469    0.524665   -0.491949
      5          1           0       -0.954130   -3.210778   -0.583559
 ---------------------------------------------------------------------
                    Distance matrix (angstroms):
                    1          2          3          4          5
     1  C    0.000000
     2  H    1.079100   0.000000
     3  H    1.079100   1.841292   0.000000
     4  H    1.079100   1.841369   1.841306   0.000000
     5  H    3.400000   3.739505   3.739431   3.739562   0.000000
 Symmetry turned off by external request.
 Stoichiometry    CH4
 Framework group  C1[X(CH4)]
 Deg. of freedom     9
 Full point group                 C1      NOp   1
 Rotational constants (GHZ):    147.9014650     39.0254721     39.0249460
 Standard basis: Aug-CC-pVTZ (5D, 7F)
   138 basis functions,   180 primitive gaussians,   155 cartesian basis functions
     5 alpha electrons        5 beta electrons
       nuclear repulsion energy        11.0475180405 Hartrees.
 NAtoms=    5 NActive=    5 NUniq=    5 SFac= 1.00D+00 NAtFMM=   60 NAOKFM=F Big=F
 Integral buffers will be    131072 words long.
 Raffenetti 2 integral format.
 Two-electron integral symmetry is turned off.
 Nuclear repulsion after empirical dispersion term =       11.0471113321 Hartrees.
 One-electron integrals computed using PRISM.
 NBasis=   138 RedAO= T EigKep=  1.11D-04  NBF=   138
 NBsUse=   138 1.00D-06 EigRej= -1.00D+00 NBFU=   138
 ExpMin= 2.53D-02 ExpMax= 8.24D+03 ExpMxC= 2.81D+02 IAcc=3 IRadAn=         5 AccDes= 0.00D+00
 Harris functional with IExCor= 4639 and IRadAn=       5 diagonalized for initial guess.
 HarFok:  IExCor= 4639 AccDes= 0.00D+00 IRadAn=         5 IDoV= 1 UseB2=F ITyADJ=14
 ICtDFT=  3500011 ScaDFX=  1.000000  1.000000  1.000000  1.000000
 FoFCou: FMM=F IPFlag=           0 FMFlag=      100000 FMFlg1=           0
         NFxFlg=           0 DoJE=T BraDBF=F KetDBF=T FulRan=T
         wScrn=  0.000000 ICntrl=     500 IOpCl=  0 I1Cent=   200000004 NGrid=           0
         NMat0=    1 NMatS0=      1 NMatT0=    0 NMatD0=    1 NMtDS0=    0 NMtDT0=    0
 Symmetry not used in FoFCou.
 Mixing orbitals, IMix= 1 IMixAn=  0 NRI=1 NE=    5 Coef=  7.07106781D-01  7.07106781D-01
 Mixing orbitals, IMix= 1 IMixAn=  0 NRI=1 NE=    5 Coef= -7.07106781D-01  7.07106781D-01
 Initial guess <Sx>= 0.0000 <Sy>= 0.0000 <Sz>= 0.0000 <S**2>= 1.0000 S= 0.6180
 Keep R1 and R2 ints in memory in canonical form, NReq=186088835.
 Requested convergence on RMS density matrix=1.00D-08 within 128 cycles.
 Requested convergence on MAX density matrix=1.00D-06.
 Requested convergence on             energy=1.00D-06.
 No special actions if energy rises.
 Rare condition: small coef for last iteration:  0.000D+00
 SCF Done:  E(UwB97XD) =  -40.3400387938     A.U. after   19 cycles
            NFock= 19  Conv=0.40D-08     -V/T= 2.0068
 <Sx>= 0.0000 <Sy>= 0.0000 <Sz>= 0.0000 <S**2>= 0.9899 S= 0.6135
 <L.S>=  0.00000000000    
 Annihilation of the first spin contaminant:
 S**2 before annihilation     0.9899,   after     0.0277

 **********************************************************************

            Population analysis using the SCF density.

 **********************************************************************

 Alpha  occ. eigenvalues --  -10.29790  -0.78891  -0.50606  -0.50604  -0.32453
 Alpha virt. eigenvalues --    0.03368   0.05219   0.05219   0.07993   0.12237
 Alpha virt. eigenvalues --    0.13324   0.13325   0.13440   0.16111   0.20366
 Alpha virt. eigenvalues --    0.20366   0.23434   0.23435   0.27813   0.32682
 Alpha virt. eigenvalues --    0.32789   0.32790   0.34581   0.35042   0.35042
 Alpha virt. eigenvalues --    0.36313   0.38420   0.39140   0.39140   0.43526
 Alpha virt. eigenvalues --    0.43527   0.46927   0.46927   0.49373   0.60531
 Alpha virt. eigenvalues --    0.61056   0.61057   0.64887   0.73168   0.75232
 Alpha virt. eigenvalues --    0.75232   0.79974   0.79974   0.81698   0.83894
 Alpha virt. eigenvalues --    0.88705   0.88706   0.91879   0.92812   0.94475
 Alpha virt. eigenvalues --    0.94476   0.95701   0.95702   0.97947   0.97948
 Alpha virt. eigenvalues --    1.03455   1.04383   1.06199   1.06201   1.06983
 Alpha virt. eigenvalues --    1.06984   1.12179   1.12180   1.18634   1.22766
 Alpha virt. eigenvalues --    1.22766   1.29300   1.38147   1.38149   1.42480
 Alpha virt. eigenvalues --    1.48311   1.48313   1.51072   1.51073   1.51560
 Alpha virt. eigenvalues --    1.52318   1.54690   1.73131   1.75145   1.75146
 Alpha virt. eigenvalues --    1.90055   1.90058   1.90644   2.03328   2.03331
 Alpha virt. eigenvalues --    2.08098   2.77046   2.77260   2.77260   2.92408
 Alpha virt. eigenvalues --    3.06620   3.06621   3.31101   3.35193   3.35272
 Alpha virt. eigenvalues --    3.35273   3.37715   3.38480   3.38481   3.44496
 Alpha virt. eigenvalues --    3.47840   3.47841   3.71862   3.71864   3.72720
 Alpha virt. eigenvalues --    3.73968   3.73970   3.74839   3.93813   3.93814
 Alpha virt. eigenvalues --    3.99793   3.99799   4.06862   4.07403   4.07409
 Alpha virt. eigenvalues --    4.16555   4.18413   4.18416   4.39156   4.47153
 Alpha virt. eigenvalues --    4.47734   4.47735   4.64844   4.64846   4.70104
 Alpha virt. eigenvalues --    4.84339   4.99761   4.99767   5.05548   5.05548
 Alpha virt. eigenvalues --    5.21048   5.47629   5.47635   5.86587   5.92237
 Alpha virt. eigenvalues --    6.18479   6.18487  15.94771
  Beta  occ. eigenvalues --  -10.28650  -0.74591  -0.49328  -0.49326  -0.39930
  Beta virt. eigenvalues --   -0.00667   0.04059   0.05375   0.05375   0.06381
  Beta virt. eigenvalues --    0.13099   0.13099   0.13514   0.14237   0.19705
  Beta virt. eigenvalues --    0.19706   0.20637   0.20638   0.23373   0.27922
  Beta virt. eigenvalues --    0.27922   0.30617   0.33234   0.33235   0.34555
  Beta virt. eigenvalues --    0.35190   0.37442   0.38639   0.38640   0.38674
  Beta virt. eigenvalues --    0.41146   0.41147   0.47024   0.47025   0.47092
  Beta virt. eigenvalues --    0.60112   0.60317   0.60318   0.69199   0.74801
  Beta virt. eigenvalues --    0.74801   0.75643   0.75643   0.77678   0.77679
  Beta virt. eigenvalues --    0.81693   0.82250   0.86791   0.88393   0.88393
  Beta virt. eigenvalues --    0.91206   0.93792   0.93792   0.94843   0.94843
  Beta virt. eigenvalues --    0.98615   0.99157   0.99158   1.03236   1.06112
  Beta virt. eigenvalues --    1.06115   1.08610   1.08611   1.10323   1.15017
  Beta virt. eigenvalues --    1.15019   1.16690   1.28050   1.37892   1.37895
  Beta virt. eigenvalues --    1.48499   1.48500   1.51675   1.51690   1.51691
  Beta virt. eigenvalues --    1.53846   1.55039   1.74317   1.75863   1.75863
  Beta virt. eigenvalues --    1.90512   1.91170   1.91172   2.03580   2.03583
  Beta virt. eigenvalues --    2.10172   2.41809   2.78344   2.78345   2.82838
  Beta virt. eigenvalues --    2.95093   3.09288   3.09292   3.36298   3.37974
  Beta virt. eigenvalues --    3.37977   3.38232   3.42299   3.42300   3.48817
  Beta virt. eigenvalues --    3.49032   3.49035   3.65716   3.65717   3.70437
  Beta virt. eigenvalues --    3.70438   3.73749   3.73750   3.74098   3.75234
  Beta virt. eigenvalues --    3.79345   3.82864   3.82865   3.90082   3.96414
  Beta virt. eigenvalues --    3.96415   4.18016   4.19546   4.19549   4.47336
  Beta virt. eigenvalues --    4.47883   4.47884   4.65373   4.65375   4.69846
  Beta virt. eigenvalues --    4.85941   5.00222   5.00228   5.08023   5.08024
  Beta virt. eigenvalues --    5.22171   5.48417   5.48422   5.88174   5.93411
  Beta virt. eigenvalues --    6.19301   6.19309  15.97313
          Condensed to atoms (all electrons):
               1          2          3          4          5
     1  C    5.902277   0.357630   0.357630   0.357775   0.003757
     2  H    0.357630   0.301558   0.008339   0.008312  -0.000887
     3  H    0.357630   0.008339   0.301544   0.008325  -0.000879
     4  H    0.357775   0.008312   0.008325   0.301724  -0.000877
     5  H    0.003757  -0.000887  -0.000879  -0.000877   0.994648
          Atomic-Atomic Spin Densities.
               1          2          3          4          5
     1  C    0.984745   0.015639   0.015626   0.015518  -0.005554
     2  H    0.015639  -0.032711   0.003312   0.003335   0.000894
     3  H    0.015626   0.003312  -0.032713   0.003324   0.000886
     4  H    0.015518   0.003335   0.003324  -0.032854   0.000884
     5  H   -0.005554   0.000894   0.000886   0.000884  -0.994196
 Mulliken charges and spin densities:
               1          2
     1  C   -0.979069   1.025974
     2  H    0.325048  -0.009531
     3  H    0.325040  -0.009564
     4  H    0.324742  -0.009793
     5  H    0.004239  -0.997086
 Sum of Mulliken charges =  -0.00000   0.00000
 Mulliken charges and spin densities with hydrogens summed into heavy atoms:
               1          2
     1  C   -0.000000   0.000000
 Electronic spatial extent (au):  <R**2>=             74.4511
 Charge=             -0.0000 electrons
 Dipole moment (field-independent basis, Debye):
    X=              0.1125    Y=              0.3784    Z=              0.0688  Tot=              0.4007
 Quadrupole moment (field-independent basis, Debye-Ang):
   XX=             -8.8429   YY=            -10.2336   ZZ=             -8.7584
   XY=             -0.4534   XZ=             -0.0823   YZ=             -0.2773
 Traceless Quadrupole moment (field-independent basis, Debye-Ang):
   XX=              0.4354   YY=             -0.9553   ZZ=              0.5199
   XY=             -0.4534   XZ=             -0.0823   YZ=             -0.2773
 Octapole moment (field-independent basis, Debye-Ang**2):
  XXX=              4.1475  YYY=             13.3301  ZZZ=              3.2796  XYY=              1.1840
  XXY=              4.6118  XXZ=              0.0547  XZZ=              1.3038  YZZ=              4.3883
  YYZ=              0.7242  XYZ=              0.2183
 Hexadecapole moment (field-independent basis, Debye-Ang**3):
 XXXX=            -24.6615 YYYY=           -104.8124 ZZZZ=            -19.6996 XXXY=            -12.9597
 XXXZ=             -2.5424 YYYX=            -13.1650 YYYZ=             -8.0517 ZZZX=             -2.3059
 ZZZY=             -7.7600 XXYY=            -21.5186 XXZZ=             -7.5070 YYZZ=            -20.8144
 XXYZ=             -2.8192 YYXZ=             -0.6881 ZZXY=             -4.3375
 N-N= 1.104711133207D+01 E-N=-1.149781376365D+02  KE= 4.006693077137D+01
                          Isotropic Fermi Contact Couplings
        Atom                 a.u.       MegaHertz       Gauss      10(-4) cm-1
     1  C(13)              0.08204      46.11508      16.45501      15.38234
     2  H(1)              -0.01085     -24.25979      -8.65649      -8.09219
     3  H(1)              -0.01085     -24.25554      -8.65498      -8.09078
     4  H(1)              -0.01086     -24.27256      -8.66105      -8.09646
     5  H(1)              -0.29049    -649.22925    -231.66113    -216.55957
 --------------------------------------------------------
       Center         ----  Spin Dipole Couplings  ----
                      3XX-RR        3YY-RR        3ZZ-RR
 --------------------------------------------------------
     1   Atom       -0.415267      0.911069     -0.495802
     2   Atom       -0.066063     -0.009850      0.075913
     3   Atom        0.045947     -0.009851     -0.036097
     4   Atom        0.023218      0.012868     -0.036086
     5   Atom       -0.004026      0.008832     -0.004806
 --------------------------------------------------------
                        XY            XZ            YZ
 --------------------------------------------------------
     1   Atom        0.432520      0.078609      0.264430
     2   Atom        0.018331     -0.000579     -0.001951
     3   Atom        0.006607     -0.057942      0.017209
     4   Atom       -0.028196      0.057927     -0.017243
     5   Atom        0.004191      0.000761      0.002563
 --------------------------------------------------------


 ---------------------------------------------------------------------------------
              Anisotropic Spin Dipole Couplings in Principal Axis System
 ---------------------------------------------------------------------------------

       Atom             a.u.   MegaHertz   Gauss  10(-4) cm-1        Axes

              Baa    -0.5439   -72.981   -26.041   -24.344  0.0310 -0.1877  0.9817
     1 C(13)  Bbb    -0.5438   -72.979   -26.041   -24.343  0.9593 -0.2703 -0.0820
              Bcc     1.0877   145.960    52.082    48.687  0.2807  0.9443  0.1716
 
              Baa    -0.0715   -38.156   -13.615   -12.727  0.9585 -0.2850 -0.0000
     2 H(1)   Bbb    -0.0045    -2.375    -0.848    -0.792  0.2849  0.9582  0.0253
              Bcc     0.0760    40.531    14.463    13.520 -0.0072 -0.0243  0.9997
 
              Baa    -0.0715   -38.156   -13.615   -12.728  0.4369 -0.2849  0.8532
     3 H(1)   Bbb    -0.0045    -2.377    -0.848    -0.793  0.1525  0.9582  0.2419
              Bcc     0.0760    40.533    14.463    13.520  0.8865 -0.0244 -0.4621
 
              Baa    -0.0715   -38.154   -13.614   -12.727 -0.5217  0.0000  0.8531
     4 H(1)   Bbb    -0.0044    -2.372    -0.847    -0.791  0.3959  0.8858  0.2421
              Bcc     0.0760    40.527    14.461    13.518  0.7557 -0.4641  0.4621
 
              Baa    -0.0053    -2.813    -1.004    -0.938  0.5053 -0.2974  0.8101
     5 H(1)   Bbb    -0.0053    -2.812    -1.004    -0.938  0.8160 -0.1406 -0.5606
              Bcc     0.0105     5.625     2.007     1.876  0.2806  0.9444  0.1716
 

 ---------------------------------------------------------------------------------

 DipInt: DoE/N= T T RetVal/Mat= T F Init=T NMatP=  1 IDeriv=0 Min/MaxMlt=  1  1
 Entering OneElI...
 Multipole integrals L=1 to 1 MinM= 0 MaxM= 0.
 Requested accuracy = 0.1000D-12
 PrsmSu:  NPrtUS=   1 ThrOK=F IAlg=1 NPAlg=1 LenDen=           0.
 Prism:   IPart=     0 DynPar=F LinDyn=F Incr=          12.
 PRISM was handed   419324352 working-precision words and  1274 shell-pairs
 IPart=  0 NShTot=        1274 NBatch=          40 AvBLen=        31.9
 PrSmSu:  NxtVal=             13.
 Entering OneElI...
 Calculate overlap and kinetic energy integrals
    NBasis = 155  MinDer = 1  MaxDer = 1
 Requested accuracy = 0.1000D-12
 PrsmSu:  NPrtUS=  32 ThrOK=T IAlg=1 NPAlg=1 LenDen=           0.
 Prism:   IPart=     0 DynPar=F LinDyn=F Incr=           1.
 PRISM was handed    13082708 working-precision words and  1275 shell-pairs
 PRISM was handed    13082708 working-precision words and  1275 shell-pairs
 PRISM was handed    13082708 working-precision words and  1275 shell-pairs
 PRISM was handed    13082708 working-precision words and  1275 shell-pairs
 PRISM was handed    13082708 working-precision words and  1275 shell-pairs
 PRISM was handed    13082708 working-precision words and  1275 shell-pairs
 PRISM was handed    13082708 working-precision words and  1275 shell-pairs
 PRISM was handed    13082708 working-precision words and  1275 shell-pairs
 PRISM was handed    13082708 working-precision words and  1275 shell-pairs
 PRISM was handed    13082708 working-precision words and  1275 shell-pairs
 PRISM was handed    13082708 working-precision words and  1275 shell-pairs
 PRISM was handed    13082708 working-precision words and  1275 shell-pairs
 PRISM was handed    13082708 working-precision words and  1275 shell-pairs
 PRISM was handed    13082708 working-precision words and  1275 shell-pairs
 PRISM was handed    13082708 working-precision words and  1275 shell-pairs
 PRISM was handed    13082708 working-precision words and  1275 shell-pairs
 IPart= 30 NShTot=          29 NBatch=           9 AvBLen=         3.2
 PRISM was handed    13082708 working-precision words and  1275 shell-pairs
 PRISM was handed    13082708 working-precision words and  1275 shell-pairs
 PRISM was handed    13082708 working-precision words and  1275 shell-pairs
 PRISM was handed    13082708 working-precision words and  1275 shell-pairs
 PRISM was handed    13082708 working-precision words and  1275 shell-pairs
 PRISM was handed    13082708 working-precision words and  1275 shell-pairs
 PRISM was handed    13082708 working-precision words and  1275 shell-pairs
 PRISM was handed    13082708 working-precision words and  1275 shell-pairs
 PRISM was handed    13082708 working-precision words and  1275 shell-pairs
 PRISM was handed    13082708 working-precision words and  1275 shell-pairs
 PRISM was handed    13082708 working-precision words and  1275 shell-pairs
 PRISM was handed    13082708 working-precision words and  1275 shell-pairs
 PRISM was handed    13082708 working-precision words and  1275 shell-pairs
 PRISM was handed    13082708 working-precision words and  1275 shell-pairs
 PRISM was handed    13082708 working-precision words and  1275 shell-pairs
 PRISM was handed    13082708 working-precision words and  1275 shell-pairs
 IPart= 20 NShTot=          35 NBatch=          12 AvBLen=         2.9
 IPart=  9 NShTot=          44 NBatch=          20 AvBLen=         2.2
 IPart=  6 NShTot=          45 NBatch=          21 AvBLen=         2.1
 IPart= 26 NShTot=          32 NBatch=          11 AvBLen=         2.9
 IPart= 16 NShTot=          35 NBatch=          12 AvBLen=         2.9
 IPart=  4 NShTot=          49 NBatch=          22 AvBLen=         2.2
 IPart= 29 NShTot=          31 NBatch=          11 AvBLen=         2.8
 IPart= 24 NShTot=          32 NBatch=          11 AvBLen=         2.9
 IPart=  2 NShTot=          56 NBatch=          29 AvBLen=         1.9
 IPart= 22 NShTot=          34 NBatch=          11 AvBLen=         3.1
 IPart= 28 NShTot=          31 NBatch=          11 AvBLen=         2.8
 IPart=  0 NShTot=          68 NBatch=          39 AvBLen=         1.7
 IPart= 19 NShTot=          35 NBatch=          12 AvBLen=         2.9
 IPart= 12 NShTot=          40 NBatch=          17 AvBLen=         2.4
 IPart= 31 NShTot=          29 NBatch=           9 AvBLen=         3.2
 IPart= 18 NShTot=          35 NBatch=          12 AvBLen=         2.9
 IPart= 23 NShTot=          34 NBatch=          11 AvBLen=         3.1
 IPart= 14 NShTot=          40 NBatch=          17 AvBLen=         2.4
 IPart= 25 NShTot=          32 NBatch=          11 AvBLen=         2.9
 IPart=  7 NShTot=          45 NBatch=          21 AvBLen=         2.1
 IPart=  8 NShTot=          44 NBatch=          20 AvBLen=         2.2
 IPart= 17 NShTot=          35 NBatch=          12 AvBLen=         2.9
 IPart= 13 NShTot=          40 NBatch=          17 AvBLen=         2.4
 IPart=  1 NShTot=          60 NBatch=          32 AvBLen=         1.9
 IPart= 27 NShTot=          32 NBatch=          11 AvBLen=         2.9
 IPart= 10 NShTot=          44 NBatch=          20 AvBLen=         2.2
 IPart= 21 NShTot=          35 NBatch=          12 AvBLen=         2.9
 IPart=  3 NShTot=          51 NBatch=          24 AvBLen=         2.1
 IPart=  5 NShTot=          46 NBatch=          22 AvBLen=         2.1
 IPart= 11 NShTot=          41 NBatch=          17 AvBLen=         2.4
 IPart= 15 NShTot=          36 NBatch=          13 AvBLen=         2.8
 PrSmSu:  NxtVal=             33.
 Entering OneElI...
 Calculate potential energy integrals
    NBasis = 155  MinDer = 1  MaxDer = 1
 Requested accuracy = 0.1000D-12
 PrsmSu:  NPrtUS=  32 ThrOK=T IAlg=1 NPAlg=1 LenDen=           0.
 Prism:   IPart=     0 DynPar=F LinDyn=F Incr=           1.
 PRISM was handed    13084436 working-precision words and  1248 shell-pairs
 PRISM was handed    13084436 working-precision words and  1248 shell-pairs
 PRISM was handed    13084436 working-precision words and  1248 shell-pairs
 PRISM was handed    13084436 working-precision words and  1248 shell-pairs
 PRISM was handed    13084436 working-precision words and  1248 shell-pairs
 PRISM was handed    13084436 working-precision words and  1248 shell-pairs
 PRISM was handed    13084436 working-precision words and  1248 shell-pairs
 PRISM was handed    13084436 working-precision words and  1248 shell-pairs
 PRISM was handed    13084436 working-precision words and  1248 shell-pairs
 PRISM was handed    13084436 working-precision words and  1248 shell-pairs
 PRISM was handed    13084436 working-precision words and  1248 shell-pairs
 PRISM was handed    13084436 working-precision words and  1248 shell-pairs
 PRISM was handed    13084436 working-precision words and  1248 shell-pairs
 PRISM was handed    13084436 working-precision words and  1248 shell-pairs
 PRISM was handed    13084436 working-precision words and  1248 shell-pairs
 PRISM was handed    13084436 working-precision words and  1248 shell-pairs
 PRISM was handed    13084436 working-precision words and  1248 shell-pairs
 PRISM was handed    13084436 working-precision words and  1248 shell-pairs
 PRISM was handed    13084436 working-precision words and  1248 shell-pairs
 PRISM was handed    13084436 working-precision words and  1248 shell-pairs
 PRISM was handed    13084436 working-precision words and  1248 shell-pairs
 PRISM was handed    13084436 working-precision words and  1248 shell-pairs
 PRISM was handed    13084436 working-precision words and  1248 shell-pairs
 PRISM was handed    13084436 working-precision words and  1248 shell-pairs
 PRISM was handed    13084436 working-precision words and  1248 shell-pairs
 PRISM was handed    13084436 working-precision words and  1248 shell-pairs
 PRISM was handed    13084436 working-precision words and  1248 shell-pairs
 PRISM was handed    13084436 working-precision words and  1248 shell-pairs
 PRISM was handed    13084436 working-precision words and  1248 shell-pairs
 PRISM was handed    13084436 working-precision words and  1248 shell-pairs
 PRISM was handed    13084436 working-precision words and  1248 shell-pairs
 PRISM was handed    13084436 working-precision words and  1248 shell-pairs
 IPart= 15 NShTot=         175 NBatch=          35 AvBLen=         5.0
 IPart= 25 NShTot=         160 NBatch=          32 AvBLen=         5.0
 IPart= 27 NShTot=         160 NBatch=          32 AvBLen=         5.0
 IPart= 13 NShTot=         200 NBatch=          40 AvBLen=         5.0
 IPart=  5 NShTot=         225 NBatch=          45 AvBLen=         5.0
 IPart= 19 NShTot=         175 NBatch=          35 AvBLen=         5.0
 IPart=  7 NShTot=         215 NBatch=          43 AvBLen=         5.0
 IPart=  3 NShTot=         240 NBatch=          48 AvBLen=         5.0
 IPart=  8 NShTot=         215 NBatch=          43 AvBLen=         5.0
 IPart= 10 NShTot=         200 NBatch=          40 AvBLen=         5.0
 IPart= 11 NShTot=         200 NBatch=          40 AvBLen=         5.0
 IPart= 23 NShTot=         165 NBatch=          33 AvBLen=         5.0
 IPart= 21 NShTot=         175 NBatch=          35 AvBLen=         5.0
 IPart= 31 NShTot=         145 NBatch=          29 AvBLen=         5.0
 IPart= 17 NShTot=         175 NBatch=          35 AvBLen=         5.0
 IPart=  1 NShTot=         290 NBatch=          58 AvBLen=         5.0
 IPart= 14 NShTot=         185 NBatch=          37 AvBLen=         5.0
 IPart= 20 NShTot=         175 NBatch=          35 AvBLen=         5.0
 IPart=  9 NShTot=         215 NBatch=          43 AvBLen=         5.0
 IPart= 24 NShTot=         165 NBatch=          33 AvBLen=         5.0
 IPart= 29 NShTot=         155 NBatch=          31 AvBLen=         5.0
 IPart=  0 NShTot=         325 NBatch=          65 AvBLen=         5.0
 IPart= 18 NShTot=         175 NBatch=          35 AvBLen=         5.0
 IPart= 26 NShTot=         160 NBatch=          32 AvBLen=         5.0
 IPart= 28 NShTot=         155 NBatch=          31 AvBLen=         5.0
 IPart=  4 NShTot=         235 NBatch=          47 AvBLen=         5.0
 IPart= 16 NShTot=         175 NBatch=          35 AvBLen=         5.0
 IPart= 12 NShTot=         200 NBatch=          40 AvBLen=         5.0
 IPart=  2 NShTot=         270 NBatch=          54 AvBLen=         5.0
 IPart= 30 NShTot=         145 NBatch=          29 AvBLen=         5.0
 IPart= 22 NShTot=         165 NBatch=          33 AvBLen=         5.0
 IPart=  6 NShTot=         225 NBatch=          45 AvBLen=         5.0
 PrSmSu:  NxtVal=             33.
 l701 out
 I=    0 X=   4.425773273712D-02 Y=   1.488639777572D-01 Z=   2.704938248920D-02
 I=    1 X=  -3.133801208848D-01 Y=  -1.055147532926D+00 Z=  -1.915641326586D-01
 I=    2 X=   1.168431282334D-02 Y=   3.985268099568D-02 Z=   2.337976285894D+00
 I=    3 X=   2.086425924669D+00 Y=   3.981611109373D-02 Z=  -1.055115224812D+00
 I=    4 X=  -1.725978264407D+00 Y=   1.173185819821D+00 Z=  -1.055361474634D+00
 I=    5 X=  -5.875185219983D-02 Y=  -1.977070789849D-01 Z=  -3.593545379008D-02
 ICntrl=      2127.
 Calling FoFJK, ICntrl=      2127 FMM=F ISym2X=0 I1Cent= 0 IOpClX= 1 NMat=1 NMatS=1 NMatT=0.
 FoFJK:  IHMeth= 1 ICntrl=    2127 DoSepK=T KAlg= 0 I1Cent=   0 FoldK=F
 IRaf=         1 NMat=   1 IRICut=       1 DoRegI=T DoRafI=F ISym2E= 0.
 FoFCou: FMM=F IPFlag=           0 FMFlag=      100000 FMFlg1=         800
         NFxFlg=           0 DoJE=F BraDBF=F KetDBF=F FulRan=T
         wScrn=  0.000000 ICntrl=    2527 IOpCl=  0 I1Cent=           0 NGrid=           0
         NMat0=    1 NMatS0=      1 NMatT0=    0 NMatD0=    1 NMtDS0=    0 NMtDT0=    0
 Symmetry not used in FoFCou.
 FoFCou:  KetSym=F NOpSet=  1 NOpAb=1 NOp=  1.
 FoFCou:  CnvScl= 1.00D+00 Thresh= 1.00D-10 IAcrcy=      10.
 PrismS was handed   419299280 working-precision words and  1273 shell-pairs
 FoFCou: LinMIO=F DoNuc=F BraDBF=F KetDBF=F HaveP=T PDBF=F HaveZ=T HaveW=F
         NIJTC =      10 NIJTAt=       0 NIJTCD=       0 NIJTT =      10
         IJTBeg=       1 IJTEnd=      10 KLTBeg=       1 KLTEnd=      10
         IPTBeg=       1 IPTEnd=      10 IPTBCv=       1 IPTECv=      10
         IZTBeg=       1 IZTEnd=      10 IZTBCv=       1 IZTECv=      10
         IWTBeg=      11 IWTEnd=      10 IWTBCv=      11 IWTECv=      10
         INTBeg=       1 INTEnd=       0 IFTBCv=       1 IFTECv=      10
 NCel replicated for PrismC:     1
 CoulSu:  IncDef=  1024 NBBP=         810901 NTPThr=   100 NPartT=   32 Incr=         253 LDynOK=F.
 CoulSu:  NPrtUS=  32 ThrOK=T IAlg=1 NPAlg=1 LenDen=           0 LWGrdD=           0 DoCopy=F.
 Enter PrismC: JobTyp=21 DoJE=F Cont=F.
 Enter PrismC: JobTyp=21 DoJE=F Cont=F.
 Enter PrismC: JobTyp=21 DoJE=F Cont=F.
 Enter PrismC: JobTyp=21 DoJE=F Cont=F.
 Enter PrismC: JobTyp=21 DoJE=F Cont=F.
 Enter PrismC: JobTyp=21 DoJE=F Cont=F.
 Enter PrismC: JobTyp=21 DoJE=F Cont=F.
 PrismC:  IPart=     0 DynPar=T LinDyn=F Incr=         253 UseFst=F UseS4=T IGathr=2.
 PrismC was handed    13083372 working-precision words and  1273 shell-pairs
 Enter PrismC: JobTyp=21 DoJE=F Cont=F.
 Enter PrismC: JobTyp=21 DoJE=F Cont=F.
 Enter PrismC: JobTyp=21 DoJE=F Cont=F.
 Enter PrismC: JobTyp=21 DoJE=F Cont=F.
 Enter PrismC: JobTyp=21 DoJE=F Cont=F.
 Enter PrismC: JobTyp=21 DoJE=F Cont=F.
 Enter PrismC: JobTyp=21 DoJE=F Cont=F.
 Enter PrismC: JobTyp=21 DoJE=F Cont=F.
 Enter PrismC: JobTyp=21 DoJE=F Cont=F.
 Enter PrismC: JobTyp=21 DoJE=F Cont=F.
 Enter PrismC: JobTyp=21 DoJE=F Cont=F.
 Enter PrismC: JobTyp=21 DoJE=F Cont=F.
 Enter PrismC: JobTyp=21 DoJE=F Cont=F.
 Enter PrismC: JobTyp=21 DoJE=F Cont=F.
 Enter PrismC: JobTyp=21 DoJE=F Cont=F.
 Enter PrismC: JobTyp=21 DoJE=F Cont=F.
 PrismC was handed    13083372 working-precision words and  1273 shell-pairs
 Enter PrismC: JobTyp=21 DoJE=F Cont=F.
 PrismC was handed    13083372 working-precision words and  1273 shell-pairs
 Enter PrismC: JobTyp=21 DoJE=F Cont=F.
 PrismC was handed    13083372 working-precision words and  1273 shell-pairs
 Enter PrismC: JobTyp=21 DoJE=F Cont=F.
 PrismC was handed    13083372 working-precision words and  1273 shell-pairs
 Enter PrismC: JobTyp=21 DoJE=F Cont=F.
 PrismC was handed    13083372 working-precision words and  1273 shell-pairs
 Enter PrismC: JobTyp=21 DoJE=F Cont=F.
 PrismC was handed    13083372 working-precision words and  1273 shell-pairs
 Enter PrismC: JobTyp=21 DoJE=F Cont=F.
 PrismC was handed    13083372 working-precision words and  1273 shell-pairs
 Enter PrismC: JobTyp=21 DoJE=F Cont=F.
 PrismC was handed    13083372 working-precision words and  1273 shell-pairs
 Enter PrismC: JobTyp=21 DoJE=F Cont=F.
 PrismC was handed    13083372 working-precision words and  1273 shell-pairs
 PrismC was handed    13083372 working-precision words and  1273 shell-pairs
 PrismC was handed    13083372 working-precision words and  1273 shell-pairs
 PrismC was handed    13083372 working-precision words and  1273 shell-pairs
 PrismC was handed    13083372 working-precision words and  1273 shell-pairs
 PrismC was handed    13083372 working-precision words and  1273 shell-pairs
 Enter PrismC: JobTyp=21 DoJE=F Cont=F.
 PrismC was handed    13083372 working-precision words and  1273 shell-pairs
 PrismC was handed    13083372 working-precision words and  1273 shell-pairs
 PrismC was handed    13083372 working-precision words and  1273 shell-pairs
 PrismC was handed    13083372 working-precision words and  1273 shell-pairs
 PrismC was handed    13083372 working-precision words and  1273 shell-pairs
 PrismC was handed    13083372 working-precision words and  1273 shell-pairs
 PrismC was handed    13083372 working-precision words and  1273 shell-pairs
 PrismC was handed    13083372 working-precision words and  1273 shell-pairs
 PrismC was handed    13083372 working-precision words and  1273 shell-pairs
 PrismC was handed    13083372 working-precision words and  1273 shell-pairs
 PrismC was handed    13083372 working-precision words and  1273 shell-pairs
 PrismC was handed    13083372 working-precision words and  1273 shell-pairs
 PrismC was handed    13083372 working-precision words and  1273 shell-pairs
 PrismC was handed    13083372 working-precision words and  1273 shell-pairs
 PrismC was handed    13083372 working-precision words and  1273 shell-pairs
 PrismC was handed    13083372 working-precision words and  1273 shell-pairs
 PrismC was handed    13083372 working-precision words and  1273 shell-pairs
 IPart= 19 NShTot=       23055 NShNF=       23055 NShFF=           0 NBatch=         244 AvBLen=        94.5
 IPart= 24 NShTot=       26091 NShNF=       26091 NShFF=           0 NBatch=         248 AvBLen=       105.2
 IPart= 31 NShTot=       26312 NShNF=       26312 NShFF=           0 NBatch=         237 AvBLen=       111.0
 IPart=  8 NShTot=       18868 NShNF=       18868 NShFF=           0 NBatch=         204 AvBLen=        92.5
 IPart= 26 NShTot=       29592 NShNF=       29592 NShFF=           0 NBatch=         246 AvBLen=       120.3
 IPart= 10 NShTot=       24118 NShNF=       24118 NShFF=           0 NBatch=         238 AvBLen=       101.3
 IPart= 30 NShTot=       29795 NShNF=       29795 NShFF=           0 NBatch=         250 AvBLen=       119.2
 IPart= 29 NShTot=       22208 NShNF=       22208 NShFF=           0 NBatch=         238 AvBLen=        93.3
 IPart=  1 NShTot=       25929 NShNF=       25929 NShFF=           0 NBatch=         225 AvBLen=       115.2
 IPart= 25 NShTot=       20872 NShNF=       20872 NShFF=           0 NBatch=         235 AvBLen=        88.8
 IPart= 28 NShTot=       23537 NShNF=       23537 NShFF=           0 NBatch=         238 AvBLen=        98.9
 IPart=  4 NShTot=       24471 NShNF=       24471 NShFF=           0 NBatch=         239 AvBLen=       102.4
 IPart=  9 NShTot=       25620 NShNF=       25620 NShFF=           0 NBatch=         237 AvBLen=       108.1
 IPart= 18 NShTot=       18584 NShNF=       18584 NShFF=           0 NBatch=         214 AvBLen=        86.8
 IPart= 14 NShTot=       18831 NShNF=       18831 NShFF=           0 NBatch=         166 AvBLen=       113.4
 IPart= 17 NShTot=       26900 NShNF=       26900 NShFF=           0 NBatch=         242 AvBLen=       111.2
 IPart= 23 NShTot=       18721 NShNF=       18721 NShFF=           0 NBatch=         225 AvBLen=        83.2
 IPart= 15 NShTot=       26616 NShNF=       26616 NShFF=           0 NBatch=         242 AvBLen=       110.0
 IPart=  0 NShTot=       21021 NShNF=       21021 NShFF=           0 NBatch=         225 AvBLen=        93.4
 IPart= 20 NShTot=       22867 NShNF=       22867 NShFF=           0 NBatch=         228 AvBLen=       100.3
 IPart= 22 NShTot=       22238 NShNF=       22238 NShFF=           0 NBatch=         251 AvBLen=        88.6
 IPart=  3 NShTot=       23000 NShNF=       23000 NShFF=           0 NBatch=         250 AvBLen=        92.0
 IPart=  5 NShTot=       24325 NShNF=       24325 NShFF=           0 NBatch=         245 AvBLen=        99.3
 IPart= 11 NShTot=       20773 NShNF=       20773 NShFF=           0 NBatch=         262 AvBLen=        79.3
 IPart=  2 NShTot=       21556 NShNF=       21556 NShFF=           0 NBatch=         226 AvBLen=        95.4
 IPart=  7 NShTot=       20770 NShNF=       20770 NShFF=           0 NBatch=         181 AvBLen=       114.8
 IPart= 16 NShTot=       22746 NShNF=       22746 NShFF=           0 NBatch=         237 AvBLen=        96.0
 IPart= 13 NShTot=       24092 NShNF=       24092 NShFF=           0 NBatch=         248 AvBLen=        97.1
 IPart= 12 NShTot=       23146 NShNF=       23146 NShFF=           0 NBatch=         237 AvBLen=        97.7
 IPart= 27 NShTot=       24112 NShNF=       24112 NShFF=           0 NBatch=         231 AvBLen=       104.4
 IPart= 21 NShTot=       23004 NShNF=       23004 NShFF=           0 NBatch=         240 AvBLen=        95.8
 IPart=  6 NShTot=       26174 NShNF=       26174 NShFF=           0 NBatch=         232 AvBLen=       112.8
 CoulSu:  NxtVal=         897898.
 FoFCou: FMM=F IPFlag=           0 FMFlag=      100000 FMFlg1=         800
         NFxFlg=           0 DoJE=F BraDBF=F KetDBF=F FulRan=T
         wScrn=  0.000000 ICntrl=    2127 IOpCl=  1 I1Cent=           0 NGrid=           0
         NMat0=    1 NMatS0=      0 NMatT0=    1 NMatD0=    1 NMtDS0=    0 NMtDT0=    0
         CW=    0.222036    0.777964
         WU=    0.000000   12.500000
 Symmetry not used in FoFCou.
 FoFCou:  KetSym=F NOpSet=  1 NOpAb=1 NOp=  1.
 FoFCou:  CnvScl= 1.00D+00 Thresh= 1.00D-10 IAcrcy=      10.
 PrismS was handed   419298040 working-precision words and  1273 shell-pairs
 FoFCou: LinMIO=F DoNuc=F BraDBF=F KetDBF=F HaveP=T PDBF=F HaveZ=T HaveW=F
         NIJTC =      10 NIJTAt=       0 NIJTCD=       0 NIJTT =      10
         IJTBeg=       1 IJTEnd=      10 KLTBeg=       1 KLTEnd=      10
         IPTBeg=       1 IPTEnd=      10 IPTBCv=       1 IPTECv=      10
         IZTBeg=       1 IZTEnd=      10 IZTBCv=       1 IZTECv=      10
         IWTBeg=      11 IWTEnd=      10 IWTBCv=      11 IWTECv=      10
         INTBeg=       1 INTEnd=       0 IFTBCv=       1 IFTECv=      10
 NCel replicated for PrismC:     1
 CoulSu:  IncDef=  1024 NBBP=         810901 NTPThr=   100 NPartT=   32 Incr=         253 LDynOK=F.
 CoulSu:  NPrtUS=  32 ThrOK=T IAlg=1 NPAlg=1 LenDen=           0 LWGrdD=           0 DoCopy=F.
 Enter PrismC: JobTyp=21 DoJE=F Cont=F.
 Linear combination for Coulomb/exchange, wScrn=  0.000000
 Enter PrismC: JobTyp=21 DoJE=F Cont=F.
 Enter PrismC: JobTyp=21 DoJE=F Cont=F.
 Linear combination for Coulomb/exchange, wScrn=  0.000000
 Enter PrismC: JobTyp=21 DoJE=F Cont=F.
 Linear combination for Coulomb/exchange, wScrn=  0.000000
 CW=    0.222036    0.777964
 WU=    0.000000   12.500000
 Enter PrismC: JobTyp=21 DoJE=F Cont=F.
 Linear combination for Coulomb/exchange, wScrn=  0.000000
 CW=    0.222036    0.777964
 WU=    0.000000   12.500000
 Enter PrismC: JobTyp=21 DoJE=F Cont=F.
 Linear combination for Coulomb/exchange, wScrn=  0.000000
 CW=    0.222036    0.777964
 WU=    0.000000   12.500000
 PrismC was handed    13083334 working-precision words and  1273 shell-pairs
 Enter PrismC: JobTyp=21 DoJE=F Cont=F.
 Linear combination for Coulomb/exchange, wScrn=  0.000000
 CW=    0.222036    0.777964
 WU=    0.000000   12.500000
 CW=    0.222036    0.777964
 WU=    0.000000   12.500000
 Enter PrismC: JobTyp=21 DoJE=F Cont=F.
 Linear combination for Coulomb/exchange, wScrn=  0.000000
 CW=    0.222036    0.777964
 WU=    0.000000   12.500000
 PrismC was handed    13083334 working-precision words and  1273 shell-pairs
 CW=    0.222036    0.777964
 WU=    0.000000   12.500000
 Enter PrismC: JobTyp=21 DoJE=F Cont=F.
 Linear combination for Coulomb/exchange, wScrn=  0.000000
 CW=    0.222036    0.777964
 WU=    0.000000   12.500000
 Enter PrismC: JobTyp=21 DoJE=F Cont=F.
 Linear combination for Coulomb/exchange, wScrn=  0.000000
 CW=    0.222036    0.777964
 WU=    0.000000   12.500000
 Enter PrismC: JobTyp=21 DoJE=F Cont=F.
 Linear combination for Coulomb/exchange, wScrn=  0.000000
 CW=    0.222036    0.777964
 WU=    0.000000   12.500000
 Enter PrismC: JobTyp=21 DoJE=F Cont=F.
 Linear combination for Coulomb/exchange, wScrn=  0.000000
 CW=    0.222036    0.777964
 WU=    0.000000   12.500000
 Enter PrismC: JobTyp=21 DoJE=F Cont=F.
 Linear combination for Coulomb/exchange, wScrn=  0.000000
 CW=    0.222036    0.777964
 WU=    0.000000   12.500000
 Enter PrismC: JobTyp=21 DoJE=F Cont=F.
 Linear combination for Coulomb/exchange, wScrn=  0.000000
 CW=    0.222036    0.777964
 WU=    0.000000   12.500000
 Enter PrismC: JobTyp=21 DoJE=F Cont=F.
 Linear combination for Coulomb/exchange, wScrn=  0.000000
 CW=    0.222036    0.777964
 WU=    0.000000   12.500000
 Enter PrismC: JobTyp=21 DoJE=F Cont=F.
 Linear combination for Coulomb/exchange, wScrn=  0.000000
 CW=    0.222036    0.777964
 WU=    0.000000   12.500000
 Enter PrismC: JobTyp=21 DoJE=F Cont=F.
 Linear combination for Coulomb/exchange, wScrn=  0.000000
 CW=    0.222036    0.777964
 WU=    0.000000   12.500000
 Enter PrismC: JobTyp=21 DoJE=F Cont=F.
 Linear combination for Coulomb/exchange, wScrn=  0.000000
 CW=    0.222036    0.777964
 WU=    0.000000   12.500000
 PrismC was handed    13083334 working-precision words and  1273 shell-pairs
 PrismC was handed    13083334 working-precision words and  1273 shell-pairs
 Enter PrismC: JobTyp=21 DoJE=F Cont=F.
 Linear combination for Coulomb/exchange, wScrn=  0.000000
 CW=    0.222036    0.777964
 WU=    0.000000   12.500000
 Enter PrismC: JobTyp=21 DoJE=F Cont=F.
 Linear combination for Coulomb/exchange, wScrn=  0.000000
 CW=    0.222036    0.777964
 WU=    0.000000   12.500000
 PrismC was handed    13083334 working-precision words and  1273 shell-pairs
 Enter PrismC: JobTyp=21 DoJE=F Cont=F.
 Linear combination for Coulomb/exchange, wScrn=  0.000000
 CW=    0.222036    0.777964
 WU=    0.000000   12.500000
 Enter PrismC: JobTyp=21 DoJE=F Cont=F.
 Linear combination for Coulomb/exchange, wScrn=  0.000000
 CW=    0.222036    0.777964
 WU=    0.000000   12.500000
 Enter PrismC: JobTyp=21 DoJE=F Cont=F.
 Linear combination for Coulomb/exchange, wScrn=  0.000000
 CW=    0.222036    0.777964
 WU=    0.000000   12.500000
 Enter PrismC: JobTyp=21 DoJE=F Cont=F.
 Linear combination for Coulomb/exchange, wScrn=  0.000000
 CW=    0.222036    0.777964
 WU=    0.000000   12.500000
 Enter PrismC: JobTyp=21 DoJE=F Cont=F.
 Linear combination for Coulomb/exchange, wScrn=  0.000000
 CW=    0.222036    0.777964
 WU=    0.000000   12.500000
 PrismC was handed    13083334 working-precision words and  1273 shell-pairs
 PrismC was handed    13083334 working-precision words and  1273 shell-pairs
 PrismC was handed    13083334 working-precision words and  1273 shell-pairs
 Linear combination for Coulomb/exchange, wScrn=  0.000000
 CW=    0.222036    0.777964
 WU=    0.000000   12.500000
 PrismC was handed    13083334 working-precision words and  1273 shell-pairs
 PrismC:  IPart=     0 DynPar=T LinDyn=F Incr=         253 UseFst=F UseS4=T IGathr=2.
 PrismC was handed    13083334 working-precision words and  1273 shell-pairs
 Enter PrismC: JobTyp=21 DoJE=F Cont=F.
 Linear combination for Coulomb/exchange, wScrn=  0.000000
 CW=    0.222036    0.777964
 WU=    0.000000   12.500000
 PrismC was handed    13083334 working-precision words and  1273 shell-pairs
 PrismC was handed    13083334 working-precision words and  1273 shell-pairs
 Enter PrismC: JobTyp=21 DoJE=F Cont=F.
 Linear combination for Coulomb/exchange, wScrn=  0.000000
 CW=    0.222036    0.777964
 WU=    0.000000   12.500000
 Enter PrismC: JobTyp=21 DoJE=F Cont=F.
 Linear combination for Coulomb/exchange, wScrn=  0.000000
 CW=    0.222036    0.777964
 WU=    0.000000   12.500000
 Enter PrismC: JobTyp=21 DoJE=F Cont=F.
 Linear combination for Coulomb/exchange, wScrn=  0.000000
 CW=    0.222036    0.777964
 WU=    0.000000   12.500000
 PrismC was handed    13083334 working-precision words and  1273 shell-pairs
 PrismC was handed    13083334 working-precision words and  1273 shell-pairs
 PrismC was handed    13083334 working-precision words and  1273 shell-pairs
 PrismC was handed    13083334 working-precision words and  1273 shell-pairs
 PrismC was handed    13083334 working-precision words and  1273 shell-pairs
 Enter PrismC: JobTyp=21 DoJE=F Cont=F.
 Linear combination for Coulomb/exchange, wScrn=  0.000000
 CW=    0.222036    0.777964
 WU=    0.000000   12.500000
 PrismC was handed    13083334 working-precision words and  1273 shell-pairs
 PrismC was handed    13083334 working-precision words and  1273 shell-pairs
 PrismC was handed    13083334 working-precision words and  1273 shell-pairs
 PrismC was handed    13083334 working-precision words and  1273 shell-pairs
 PrismC was handed    13083334 working-precision words and  1273 shell-pairs
 PrismC was handed    13083334 working-precision words and  1273 shell-pairs
 PrismC was handed    13083334 working-precision words and  1273 shell-pairs
 PrismC was handed    13083334 working-precision words and  1273 shell-pairs
 Enter PrismC: JobTyp=21 DoJE=F Cont=F.
 Linear combination for Coulomb/exchange, wScrn=  0.000000
 CW=    0.222036    0.777964
 WU=    0.000000   12.500000
 PrismC was handed    13083334 working-precision words and  1273 shell-pairs
 PrismC was handed    13083334 working-precision words and  1273 shell-pairs
 PrismC was handed    13083334 working-precision words and  1273 shell-pairs
 PrismC was handed    13083334 working-precision words and  1273 shell-pairs
 Enter PrismC: JobTyp=21 DoJE=F Cont=F.
 Linear combination for Coulomb/exchange, wScrn=  0.000000
 CW=    0.222036    0.777964
 WU=    0.000000   12.500000
 PrismC was handed    13083334 working-precision words and  1273 shell-pairs
 PrismC was handed    13083334 working-precision words and  1273 shell-pairs
 PrismC was handed    13083334 working-precision words and  1273 shell-pairs
 IPart= 11 NShTot=       25565 NShNF=       25565 NShFF=           0 NBatch=         304 AvBLen=        84.1
 IPart=  8 NShTot=       22599 NShNF=       22599 NShFF=           0 NBatch=         238 AvBLen=        95.0
 IPart=  1 NShTot=       24064 NShNF=       24064 NShFF=           0 NBatch=         277 AvBLen=        86.9
 IPart= 24 NShTot=       22753 NShNF=       22753 NShFF=           0 NBatch=         307 AvBLen=        74.1
 IPart=  9 NShTot=       26086 NShNF=       26086 NShFF=           0 NBatch=         307 AvBLen=        85.0
 IPart=  5 NShTot=       25683 NShNF=       25683 NShFF=           0 NBatch=         317 AvBLen=        81.0
 IPart=  4 NShTot=       20267 NShNF=       20267 NShFF=           0 NBatch=         285 AvBLen=        71.1
 IPart= 29 NShTot=       24779 NShNF=       24779 NShFF=           0 NBatch=         237 AvBLen=       104.6
 IPart= 15 NShTot=       22268 NShNF=       22268 NShFF=           0 NBatch=         312 AvBLen=        71.4
 IPart= 23 NShTot=       21323 NShNF=       21323 NShFF=           0 NBatch=         188 AvBLen=       113.4
 IPart= 28 NShTot=       22684 NShNF=       22684 NShFF=           0 NBatch=         273 AvBLen=        83.1
 IPart=  0 NShTot=       23604 NShNF=       23604 NShFF=           0 NBatch=         249 AvBLen=        94.8
 IPart= 19 NShTot=       24354 NShNF=       24354 NShFF=           0 NBatch=         241 AvBLen=       101.1
 IPart= 14 NShTot=       23693 NShNF=       23693 NShFF=           0 NBatch=         246 AvBLen=        96.3
 IPart= 18 NShTot=       20590 NShNF=       20590 NShFF=           0 NBatch=         286 AvBLen=        72.0
 IPart= 30 NShTot=       25889 NShNF=       25889 NShFF=           0 NBatch=         309 AvBLen=        83.8
 IPart= 16 NShTot=       20924 NShNF=       20924 NShFF=           0 NBatch=         257 AvBLen=        81.4
 IPart= 22 NShTot=       22049 NShNF=       22049 NShFF=           0 NBatch=         282 AvBLen=        78.2
 IPart=  6 NShTot=       26115 NShNF=       26115 NShFF=           0 NBatch=         301 AvBLen=        86.8
 IPart= 31 NShTot=       22446 NShNF=       22446 NShFF=           0 NBatch=         314 AvBLen=        71.5
 IPart= 21 NShTot=       21585 NShNF=       21585 NShFF=           0 NBatch=         212 AvBLen=       101.8
 IPart=  7 NShTot=       25069 NShNF=       25069 NShFF=           0 NBatch=         306 AvBLen=        81.9
 IPart= 10 NShTot=       22407 NShNF=       22407 NShFF=           0 NBatch=         214 AvBLen=       104.7
 IPart= 13 NShTot=       23295 NShNF=       23295 NShFF=           0 NBatch=         308 AvBLen=        75.6
 IPart=  3 NShTot=       22346 NShNF=       22346 NShFF=           0 NBatch=         318 AvBLen=        70.3
 IPart= 12 NShTot=       24314 NShNF=       24314 NShFF=           0 NBatch=         305 AvBLen=        79.7
 IPart= 27 NShTot=       25315 NShNF=       25315 NShFF=           0 NBatch=         240 AvBLen=       105.5
 IPart= 20 NShTot=       24017 NShNF=       24017 NShFF=           0 NBatch=         281 AvBLen=        85.5
 IPart= 17 NShTot=       21954 NShNF=       21954 NShFF=           0 NBatch=         305 AvBLen=        72.0
 IPart=  2 NShTot=       28390 NShNF=       28390 NShFF=           0 NBatch=         316 AvBLen=        89.8
 IPart= 25 NShTot=       22461 NShNF=       22461 NShFF=           0 NBatch=         231 AvBLen=        97.2
 IPart= 26 NShTot=       23122 NShNF=       23122 NShFF=           0 NBatch=         314 AvBLen=        73.6
 CoulSu:  NxtVal=         897898.
 ReadGW:  IGet=0 IStart=           1 Next=           1 LGW=           0.
 Remaining memory in FofDFT      399.95 Mw
 CkSvGd:  ISavGI=        -1 IRadAn=       5 IRASav=       5 ISavGd=        -1.
 CalDSu:  NPrtUS=  32 ThrOK=T IAlg=1 NPAlg=2 DoDPD=T LenP=       12090 LenD1P=             0.
 IPart=  0 IRanGd=          0 ScrnBf=T ScrnGd=T RCrit=4.00D+00 DoMicB=T.
 IPart=  8         2355 of         2360 points in       2 batches and        7 microbatches, Max-NSigAt=       5 Max-NSgAt2=       5
 IPart= 28         2712 of         2732 points in       2 batches and        7 microbatches, Max-NSigAt=       5 Max-NSgAt2=       5
 IPart= 18         3296 of         3568 points in       4 batches and        8 microbatches, Max-NSigAt=       5 Max-NSgAt2=       5
 IPart= 12         2834 of         3020 points in       3 batches and       24 microbatches, Max-NSigAt=       5 Max-NSgAt2=       5
 IPart= 10         2886 of         2992 points in       3 batches and        7 microbatches, Max-NSigAt=       5 Max-NSgAt2=       5
 IPart= 24         3147 of         3568 points in       4 batches and       36 microbatches, Max-NSigAt=       5 Max-NSgAt2=       5
 IPart= 14         2782 of         2964 points in       3 batches and        8 microbatches, Max-NSigAt=       5 Max-NSgAt2=       5
 IPart=  4         2967 of         3160 points in       3 batches and        7 microbatches, Max-NSigAt=       5 Max-NSgAt2=       5
 IPart= 25         2770 of         2964 points in       3 batches and       26 microbatches, Max-NSigAt=       5 Max-NSgAt2=       5
 IPart=  0         2666 of         2666 points in       2 batches and        6 microbatches, Max-NSigAt=       5 Max-NSgAt2=       5
 IPart= 15         3015 of         3246 points in       3 batches and       25 microbatches, Max-NSigAt=       5 Max-NSgAt2=       5
 IPart= 27         3107 of         3294 points in       4 batches and       23 microbatches, Max-NSigAt=       5 Max-NSgAt2=       5
 IPart=  6         3170 of         3336 points in       3 batches and        8 microbatches, Max-NSigAt=       5 Max-NSgAt2=       5
 IPart= 11         3386 of         3596 points in       4 batches and       51 microbatches, Max-NSigAt=       5 Max-NSgAt2=       5
 IPart= 20         3243 of         3568 points in       4 batches and       49 microbatches, Max-NSigAt=       5 Max-NSgAt2=       5
 IPart=  9         3703 of         4228 points in       6 batches and       63 microbatches, Max-NSigAt=       5 Max-NSgAt2=       5
 IPart=  7         3605 of         3968 points in       5 batches and       41 microbatches, Max-NSigAt=       5 Max-NSgAt2=       5
 IPart= 19         3541 of         3746 points in       4 batches and       21 microbatches, Max-NSigAt=       5 Max-NSgAt2=       5
 IPart= 31         4236 of         4502 points in       5 batches and       11 microbatches, Max-NSigAt=       5 Max-NSgAt2=       5
 IPart=  5         4138 of         4340 points in       4 batches and       10 microbatches, Max-NSigAt=       5 Max-NSgAt2=       5
 IPart= 13         4072 of         4334 points in       5 batches and       27 microbatches, Max-NSigAt=       5 Max-NSgAt2=       5
 IPart=  3         4008 of         4172 points in       4 batches and       10 microbatches, Max-NSigAt=       5 Max-NSgAt2=       5
 IPart=  1         3626 of         3736 points in       3 batches and       12 microbatches, Max-NSigAt=       5 Max-NSgAt2=       5
 IPart= 17         3787 of         4172 points in       5 batches and       30 microbatches, Max-NSigAt=       5 Max-NSgAt2=       5
 IPart= 29         3352 of         3568 points in       4 batches and       24 microbatches, Max-NSigAt=       5 Max-NSgAt2=       5
 IPart= 22         4639 of         5176 points in       6 batches and       30 microbatches, Max-NSigAt=       5 Max-NSgAt2=       5
 IPart= 16         3390 of         3540 points in       3 batches and       12 microbatches, Max-NSigAt=       5 Max-NSgAt2=       5
 IPart= 21         3528 of         3564 points in       3 batches and       12 microbatches, Max-NSigAt=       5 Max-NSgAt2=       5
 IPart= 30         3926 of         4144 points in       4 batches and       11 microbatches, Max-NSigAt=       5 Max-NSgAt2=       5
 IPart= 26         4063 of         4454 points in       5 batches and       40 microbatches, Max-NSigAt=       5 Max-NSgAt2=       5
 IPart= 23         3345 of         3540 points in       3 batches and       14 microbatches, Max-NSigAt=       5 Max-NSgAt2=       5
 IPart=  2         3390 of         3552 points in       4 batches and       29 microbatches, Max-NSigAt=       5 Max-NSgAt2=       5
 Forces at end of L703
 I=    0 X=   4.425773273712D-02 Y=   1.488639777572D-01 Z=   2.704938248920D-02
 I=    1 X=  -3.237419523796D-03 Y=  -1.087791649791D-02 Z=  -1.980308106711D-03
 I=    2 X=   1.264364025060D-03 Y=   4.229646407476D-03 Z=  -1.415147792595D-03
 I=    3 X=  -6.883819153667D-04 Y=   4.237574137741D-03 Z=   1.770766770074D-03
 I=    4 X=   2.887611958808D-03 Y=   3.171868980602D-03 Z=   1.763596056884D-03
 I=    5 X=  -2.261745446970D-04 Y=  -7.611730279048D-04 Z=  -1.389069276540D-04
 FrcOut:
 IF    =    36 IFX   =    51 IFXYZ =    66
 IFFX  =    81 IFFFX =   201 IFLen =    15
 IFFLen=   120 IFFFLn=     0 IEDerv=   201
 LEDerv=   773 IFroze=  1163 ICStrt= 39591
 FCEst1:  Generated internal coordinate force constants:
                1             2             3             4             5 
      1  0.653463D+00
      2 -0.122043D+00  0.279203D+00
      3 -0.221605D-01 -0.746235D-01  0.676196D+00
      4 -0.999762D-01  0.108660D-01 -0.280808D-02  0.691155D-01
      5  0.108660D-01 -0.666751D-01 -0.943448D-02 -0.584798D-02  0.511966D-01
      6  0.000000D+00  0.000000D+00 -0.361033D+00  0.000000D+00  0.000000D+00
      7 -0.307943D+00  0.495060D-02  0.106488D+00  0.177377D-01  0.571353D-03
      8 -0.344693D-02 -0.666703D-01  0.139683D-01  0.125361D-02  0.435966D-02
      9  0.103682D+00  0.966838D-02 -0.153066D+00  0.346412D-01  0.111584D-02
     10 -0.236610D+00  0.105882D+00 -0.815805D-01  0.129137D-01 -0.615040D-02
     11  0.114281D+00 -0.137975D+00  0.698796D-01 -0.683255D-02  0.918847D-02
     12 -0.815830D-01  0.647453D-01 -0.153100D+00 -0.284043D-01  0.198571D-01
     13 -0.893288D-02  0.344246D-03  0.614224D-04  0.209376D-03  0.560983D-03
     14  0.342934D-03 -0.788191D-02  0.210041D-03  0.560975D-03  0.193041D-02
     15  0.611055D-04  0.209778D-03 -0.899758D-02 -0.342885D-02 -0.115384D-01
                6             7             8             9            10 
      6  0.361033D+00
      7  0.000000D+00  0.300395D+00
      8  0.000000D+00 -0.266440D-02  0.511943D-01
      9  0.000000D+00 -0.118424D+00 -0.520349D-02  0.129755D+00
     10  0.000000D+00 -0.884186D-02  0.148725D-01 -0.172679D-01  0.228444D+00
     11  0.000000D+00 -0.311316D-02  0.918675D-02 -0.607990D-02 -0.112937D+00
     12  0.000000D+00  0.111386D-01 -0.145228D-01  0.217534D-01  0.963705D-01
     13  0.000000D+00 -0.134775D-02 -0.100148D-01 -0.263211D-02  0.409464D-02
     14  0.000000D+00  0.255598D-03  0.192951D-02  0.499175D-03 -0.166714D-02
     15  0.000000D+00  0.797278D-03  0.575802D-02  0.155706D-02  0.247787D-02
               11            12            13            14            15 
     11  0.123112D+00
     12 -0.690600D-01  0.129789D+00
     13  0.860190D-02  0.247810D-02  0.597661D-02
     14 -0.351224D-02 -0.101959D-02  0.507632D-03  0.753423D-02
     15  0.526027D-02  0.155810D-02  0.925911D-04  0.310373D-03  0.588241D-02
 Quadrupole    = 3.23701565D-01-7.10225823D-01 3.86524258D-01
                -3.37097812D-01-6.11560765D-02-2.06144767D-01
 -------------------------------------------------------------------
 Center     Atomic                   Forces (Hartrees/Bohr)
 Number     Number              X              Y              Z
 -------------------------------------------------------------------
      1        6           0.003237420    0.010877916    0.001980308
      2        1          -0.001264364   -0.004229646    0.001415148
      3        1           0.000688382   -0.004237574   -0.001770767
      4        1          -0.002887612   -0.003171869   -0.001763596
      5        1           0.000226175    0.000761173    0.000138907
 -------------------------------------------------------------------
 Cartesian Forces:  Max     0.010877916 RMS     0.003632707
 From PutF, contents of force:
   1    0.1415147793D-02
   2    0.1419785300D-02
   3    0.1414535453D-02
   4    0.2574323217D-02
   5    0.2563162899D-02
   6   -0.7684944484D-02
   7    0.1173608321D-06
   8   -0.3573680072D-05
   9   -0.8061228988D-03
 -----------------------------------------------------------------------------------------------
                       Internal Coordinate Forces (Hartree/Bohr or radian)
  Cent   Atom   N1       Length/X         N2         Alpha/Y        N3         Beta/Z          J
 -----------------------------------------------------------------------------------------------
      1  C 
      2  H        1   0.001415(     1)
      3  H        1   0.001420(     2)      2   0.002574(     5)
      4  H        1   0.001415(     3)      2   0.002563(     6)      3  -0.007685(     8)     0
      5  H        1  -0.000806(     4)      2  -0.000004(     7)      3   0.000000(     9)     0
 -----------------------------------------------------------------------------------------------
 Internal  Forces:  Max     0.007684944 RMS     0.002961316
 Force constants in Cartesian coordinates: 
                1             2             3             4             5 
      1  0.653463D+00
      2 -0.122043D+00  0.279203D+00
      3 -0.221605D-01 -0.746235D-01  0.676196D+00
      4 -0.999762D-01  0.108660D-01 -0.280808D-02  0.691155D-01
      5  0.108660D-01 -0.666751D-01 -0.943448D-02 -0.584798D-02  0.511966D-01
      6  0.000000D+00  0.000000D+00 -0.361033D+00  0.000000D+00  0.000000D+00
      7 -0.307943D+00  0.495060D-02  0.106488D+00  0.177377D-01  0.571353D-03
      8 -0.344693D-02 -0.666703D-01  0.139683D-01  0.125361D-02  0.435966D-02
      9  0.103682D+00  0.966838D-02 -0.153066D+00  0.346412D-01  0.111584D-02
     10 -0.236610D+00  0.105882D+00 -0.815805D-01  0.129137D-01 -0.615040D-02
     11  0.114281D+00 -0.137975D+00  0.698796D-01 -0.683255D-02  0.918847D-02
     12 -0.815830D-01  0.647453D-01 -0.153100D+00 -0.284043D-01  0.198571D-01
     13 -0.893288D-02  0.344246D-03  0.614224D-04  0.209376D-03  0.560983D-03
     14  0.342934D-03 -0.788191D-02  0.210041D-03  0.560975D-03  0.193041D-02
     15  0.611055D-04  0.209778D-03 -0.899758D-02 -0.342885D-02 -0.115384D-01
                6             7             8             9            10 
      6  0.361033D+00
      7  0.000000D+00  0.300395D+00
      8  0.000000D+00 -0.266440D-02  0.511943D-01
      9  0.000000D+00 -0.118424D+00 -0.520349D-02  0.129755D+00
     10  0.000000D+00 -0.884186D-02  0.148725D-01 -0.172679D-01  0.228444D+00
     11  0.000000D+00 -0.311316D-02  0.918675D-02 -0.607990D-02 -0.112937D+00
     12  0.000000D+00  0.111386D-01 -0.145228D-01  0.217534D-01  0.963705D-01
     13  0.000000D+00 -0.134775D-02 -0.100148D-01 -0.263211D-02  0.409464D-02
     14  0.000000D+00  0.255598D-03  0.192951D-02  0.499175D-03 -0.166714D-02
     15  0.000000D+00  0.797278D-03  0.575802D-02  0.155706D-02  0.247787D-02
               11            12            13            14            15 
     11  0.123112D+00
     12 -0.690600D-01  0.129789D+00
     13  0.860190D-02  0.247810D-02  0.597661D-02
     14 -0.351224D-02 -0.101959D-02  0.507632D-03  0.753423D-02
     15  0.526027D-02  0.155810D-02  0.925911D-04  0.310373D-03  0.588241D-02
 FCInt: Cartesian first derivatives: 
                 1             2             3             4             5 
      1   0.000000D+00  0.000000D+00  0.000000D+00  0.000000D+00  0.000000D+00
      2   0.000000D+00  0.000000D+00  0.000000D+00  0.000000D+00  0.000000D+00
      3   0.000000D+00  0.000000D+00  0.000000D+00  0.000000D+00  0.000000D+00
 FCInt: Cartesian force constants: 
                1             2             3             4             5 
      1  0.653463D+00
      2 -0.122043D+00  0.279203D+00
      3 -0.221605D-01 -0.746235D-01  0.676196D+00
      4 -0.999762D-01  0.108660D-01 -0.280808D-02  0.691155D-01
      5  0.108660D-01 -0.666751D-01 -0.943448D-02 -0.584798D-02  0.511966D-01
      6  0.000000D+00  0.000000D+00 -0.361033D+00  0.000000D+00  0.000000D+00
      7 -0.307943D+00  0.495060D-02  0.106488D+00  0.177377D-01  0.571353D-03
      8 -0.344693D-02 -0.666703D-01  0.139683D-01  0.125361D-02  0.435966D-02
      9  0.103682D+00  0.966838D-02 -0.153066D+00  0.346412D-01  0.111584D-02
     10 -0.236610D+00  0.105882D+00 -0.815805D-01  0.129137D-01 -0.615040D-02
     11  0.114281D+00 -0.137975D+00  0.698796D-01 -0.683255D-02  0.918847D-02
     12 -0.815830D-01  0.647453D-01 -0.153100D+00 -0.284043D-01  0.198571D-01
     13 -0.893288D-02  0.344246D-03  0.614224D-04  0.209376D-03  0.560983D-03
     14  0.342934D-03 -0.788191D-02  0.210041D-03  0.560975D-03  0.193041D-02
     15  0.611055D-04  0.209778D-03 -0.899758D-02 -0.342885D-02 -0.115384D-01
                6             7             8             9            10 
      6  0.361033D+00
      7  0.000000D+00  0.300395D+00
      8  0.000000D+00 -0.266440D-02  0.511943D-01
      9  0.000000D+00 -0.118424D+00 -0.520349D-02  0.129755D+00
     10  0.000000D+00 -0.884186D-02  0.148725D-01 -0.172679D-01  0.228444D+00
     11  0.000000D+00 -0.311316D-02  0.918675D-02 -0.607990D-02 -0.112937D+00
     12  0.000000D+00  0.111386D-01 -0.145228D-01  0.217534D-01  0.963705D-01
     13  0.000000D+00 -0.134775D-02 -0.100148D-01 -0.263211D-02  0.409464D-02
     14  0.000000D+00  0.255598D-03  0.192951D-02  0.499175D-03 -0.166714D-02
     15  0.000000D+00  0.797278D-03  0.575802D-02  0.155706D-02  0.247787D-02
               11            12            13            14            15 
     11  0.123112D+00
     12 -0.690600D-01  0.129789D+00
     13  0.860190D-02  0.247810D-02  0.597661D-02
     14 -0.351224D-02 -0.101959D-02  0.507632D-03  0.753423D-02
     15  0.526027D-02  0.155810D-02  0.925911D-04  0.310373D-03  0.588241D-02
 Internal force constants: 
                1             2             3             4             5 
      1  0.361033D+00
      2  0.000000D+00  0.361033D+00
      3  0.000000D+00  0.000000D+00  0.361033D+00
      4  0.000000D+00  0.000000D+00  0.000000D+00  0.774149D-02
      5  0.000000D+00  0.000000D+00  0.000000D+00  0.000000D+00  0.287415D+00
      6  0.000000D+00  0.000000D+00  0.000000D+00  0.000000D+00  0.114183D+00
      7  0.000000D+00  0.000000D+00  0.000000D+00  0.000000D+00  0.232647D-01
      8  0.000000D+00  0.000000D+00  0.000000D+00  0.000000D+00  0.603983D-01
      9  0.000000D+00  0.000000D+00  0.000000D+00  0.000000D+00 -0.386497D-01
                6             7             8             9 
      6  0.287420D+00
      7  0.232819D-01  0.240505D+00
      8  0.216238D-01 -0.681764D-01  0.168636D+00
      9  0.386612D-01  0.142178D-04 -0.116583D+00  0.233412D+00
 Frcnst in PutFF: 
                1             2             3             4             5 
      1  0.361033D+00
      2  0.000000D+00  0.361033D+00
      3  0.000000D+00  0.000000D+00  0.361033D+00
      4  0.000000D+00  0.000000D+00  0.000000D+00  0.287415D+00
      5  0.000000D+00  0.000000D+00  0.000000D+00  0.114183D+00  0.287420D+00
      6  0.000000D+00  0.000000D+00  0.000000D+00  0.603983D-01  0.216238D-01
      7  0.000000D+00  0.000000D+00  0.000000D+00 -0.386497D-01  0.386612D-01
      8  0.000000D+00  0.000000D+00  0.000000D+00  0.232647D-01  0.232819D-01
      9  0.000000D+00  0.000000D+00  0.000000D+00  0.000000D+00  0.000000D+00
                6             7             8             9 
      6  0.168636D+00
      7 -0.116583D+00  0.233412D+00
      8 -0.681764D-01  0.142178D-04  0.240505D+00
      9  0.000000D+00  0.000000D+00  0.000000D+00  0.774149D-02
 Force constants in internal coordinates: 
                1             2             3             4             5 
      1  0.361033D+00
      2  0.000000D+00  0.361033D+00
      3  0.000000D+00  0.000000D+00  0.361033D+00
      4  0.000000D+00  0.000000D+00  0.000000D+00  0.774149D-02
      5  0.000000D+00  0.000000D+00  0.000000D+00  0.000000D+00  0.287415D+00
      6  0.000000D+00  0.000000D+00  0.000000D+00  0.000000D+00  0.114183D+00
      7  0.000000D+00  0.000000D+00  0.000000D+00  0.000000D+00  0.232647D-01
      8  0.000000D+00  0.000000D+00  0.000000D+00  0.000000D+00  0.603983D-01
      9  0.000000D+00  0.000000D+00  0.000000D+00  0.000000D+00 -0.386497D-01
                6             7             8             9 
      6  0.287420D+00
      7  0.232819D-01  0.240505D+00
      8  0.216238D-01 -0.681764D-01  0.168636D+00
      9  0.386612D-01  0.142178D-04 -0.116583D+00  0.233412D+00
 Final forces over variables, Energy=-4.03400388D+01:
  1.41514779D-03 1.41978530D-03 1.41453545D-03 2.57432322D-03
  2.56316290D-03-7.68494448D-03 1.17360832D-07-3.57368007D-06
 -8.06122899D-04

 GradGradGradGradGradGradGradGradGradGradGradGradGradGradGradGradGradGrad
 Berny optimization.
 Search for a local minimum.
 Step number   1 out of a maximum of   50
 All quantities printed in internal units (Hartrees-Bohrs-Radians)
 Second derivative matrix not updated -- first step.
 The second derivative matrix:
                          R1        R2        R3        A2        A3
           R1           0.36103
           R2           0.00000   0.36103
           R3           0.00000  -0.00000   0.36103
           A2           0.00000  -0.00000  -0.00000   0.28742
           A3           0.00000  -0.00000  -0.00000   0.11418   0.28742
           D3           0.00000  -0.00000   0.00000   0.06040   0.02162
           DH1          0.00000   0.00000  -0.00000  -0.03865   0.03866
           ANG1         0.00000  -0.00000  -0.00000   0.02326   0.02328
           BB           0.00000  -0.00000  -0.00000  -0.00000   0.00000
                          D3        DH1      ANG1       BB
           D3           0.16864
           DH1         -0.11658   0.23341
           ANG1        -0.06818   0.00001   0.24051
           BB          -0.00000  -0.00000   0.00000   0.00774
 ITU=  0
     Eigenvalues ---    0.05338   0.14844   0.24330   0.34985   0.36103
     Eigenvalues ---    0.36103   0.36103   0.422411000.00000
 RFO step:  Lambda=-9.01366987D-04 EMin= 5.33819615D-02
 Linear search not attempted -- first point.
 Variable       Old X    -DE/DX   Delta X   Delta X   Delta X     New X
                                 (Linear)    (Quad)   (Total)
    R1        2.03920   0.00142   0.00000   0.00391   0.00391   2.04311
    R2        2.03920   0.00142   0.00000   0.00392   0.00392   2.04313
    R3        2.03920   0.00141   0.00000   0.00391   0.00391   2.04311
    A2        2.04403   0.00257   0.00000   0.01885   0.01885   2.06288
    A3        2.04417   0.00256   0.00000   0.01859   0.01859   2.06276
    D3        3.71950  -0.00768   0.00000  -0.10260  -0.10260   3.61691
   DH1        1.85965   0.00000   0.00000  -0.05100  -0.05100   1.80865
   ANG1       1.74329  -0.00000   0.00000  -0.03260  -0.03260   1.71069
    BB        6.42507  -0.00081   0.00000   0.00000   0.00000   6.42507
         Item               Value     Threshold  Converged?
 Maximum Force            0.007685     0.000450     NO 
 RMS     Force            0.003128     0.000300     NO 
 Maximum Displacement     0.102596     0.001800     NO 
 RMS     Displacement     0.040738     0.001200     NO 
 Predicted change in Energy=-4.574136D-04
 GradGradGradGradGradGradGradGradGradGradGradGradGradGradGradGradGradGrad

 ---------------------------------------------------------------------------------------------------
                            Z-MATRIX (ANGSTROMS AND DEGREES)
   CD    Cent   Atom    N1       Length/X        N2       Alpha/Y        N3        Beta/Z          J
 ---------------------------------------------------------------------------------------------------
      1      1  C 
      2      2  H        1   1.081169(     1)
      3      3  H        1   1.081176(     2)      2  118.194(     5)
      4      4  H        1   1.081168(     3)      2  118.187(     6)      3  207.234(     8)      0
      5      5  H        1   3.400000(     4)      2   98.015(     7)      3  103.628(     9)      0
 ---------------------------------------------------------------------------------------------------
                         Z-Matrix orientation:                         
 ---------------------------------------------------------------------
 Center     Atomic      Atomic             Coordinates (Angstroms)
 Number     Number       Type             X           Y           Z
 ---------------------------------------------------------------------
      1          6           0        0.000000    0.000000    0.000000
      2          1           0        0.000000    0.000000    1.081169
      3          1           0        0.952893    0.000000   -0.510818
      4          1           0       -0.847315    0.436089   -0.510694
      5          1           0       -0.793267   -3.271998   -0.474087
 ---------------------------------------------------------------------
                    Distance matrix (angstroms):
                    1          2          3          4          5
     1  C    0.000000
     2  H    1.081169   0.000000
     3  H    1.081176   1.855379   0.000000
     4  H    1.081168   1.855302   1.852275   0.000000
     5  H    3.400000   3.708647   3.708961   3.708661   0.000000
 Symmetry turned off by external request.
 Stoichiometry    CH4
 Framework group  C1[X(CH4)]
 Deg. of freedom     9
 Full point group                 C1      NOp   1
 Rotational constants (GHZ):    145.8353277     39.1834332     39.1602377
 Standard basis: Aug-CC-pVTZ (5D, 7F)
   138 basis functions,   180 primitive gaussians,   155 cartesian basis functions
     5 alpha electrons        5 beta electrons
       nuclear repulsion energy        11.0280865000 Hartrees.
 NAtoms=    5 NActive=    5 NUniq=    5 SFac= 1.00D+00 NAtFMM=   60 NAOKFM=F Big=F
 Integral buffers will be    131072 words long.
 Raffenetti 2 integral format.
 Two-electron integral symmetry is turned off.
 Nuclear repulsion after empirical dispersion term =       11.0276678749 Hartrees.
 One-electron integrals computed using PRISM.
 NBasis=   138 RedAO= T EigKep=  1.09D-04  NBF=   138
 NBsUse=   138 1.00D-06 EigRej= -1.00D+00 NBFU=   138
 ExpMin= 2.53D-02 ExpMax= 8.24D+03 ExpMxC= 2.81D+02 IAcc=3 IRadAn=         5 AccDes= 0.00D+00
 Harris functional with IExCor= 4639 and IRadAn=       5 diagonalized for initial guess.
 HarFok:  IExCor= 4639 AccDes= 0.00D+00 IRadAn=         5 IDoV= 1 UseB2=F ITyADJ=14
 ICtDFT=  3500011 ScaDFX=  1.000000  1.000000  1.000000  1.000000
 FoFCou: FMM=F IPFlag=           0 FMFlag=      100000 FMFlg1=           0
         NFxFlg=           0 DoJE=T BraDBF=F KetDBF=T FulRan=T
         wScrn=  0.000000 ICntrl=     500 IOpCl=  0 I1Cent=   200000004 NGrid=           0
         NMat0=    1 NMatS0=      1 NMatT0=    0 NMatD0=    1 NMtDS0=    0 NMtDT0=    0
 Symmetry not used in FoFCou.
 Mixing orbitals, IMix= 1 IMixAn=  0 NRI=1 NE=    5 Coef=  7.07106781D-01  7.07106781D-01
 Mixing orbitals, IMix= 1 IMixAn=  0 NRI=1 NE=    5 Coef= -7.07106781D-01  7.07106781D-01
 Initial guess <Sx>= 0.0000 <Sy>= 0.0000 <Sz>= 0.0000 <S**2>= 1.0000 S= 0.6180
 Keep R1 and R2 ints in memory in canonical form, NReq=186088835.
 Requested convergence on RMS density matrix=1.00D-08 within 128 cycles.
 Requested convergence on MAX density matrix=1.00D-06.
 Requested convergence on             energy=1.00D-06.
 No special actions if energy rises.
 Rare condition: small coef for last iteration:  0.000D+00
 Rare condition: small coef for last iteration:  0.000D+00
 SCF Done:  E(UwB97XD) =  -40.3407870330     A.U. after   21 cycles
            NFock= 21  Conv=0.41D-08     -V/T= 2.0071
 <Sx>= 0.0000 <Sy>= 0.0000 <Sz>= 0.0000 <S**2>= 0.9900 S= 0.6136
 <L.S>=  0.00000000000    
 Annihilation of the first spin contaminant:
 S**2 before annihilation     0.9900,   after     0.0287
 DipInt: DoE/N= T T RetVal/Mat= T F Init=T NMatP=  1 IDeriv=0 Min/MaxMlt=  1  1
 Entering OneElI...
 Multipole integrals L=1 to 1 MinM= 0 MaxM= 0.
 Requested accuracy = 0.1000D-12
 PrsmSu:  NPrtUS=   1 ThrOK=F IAlg=1 NPAlg=1 LenDen=           0.
 Prism:   IPart=     0 DynPar=F LinDyn=F Incr=          12.
 PRISM was handed   419324352 working-precision words and  1274 shell-pairs
 IPart=  0 NShTot=        1274 NBatch=          40 AvBLen=        31.9
 PrSmSu:  NxtVal=             13.
 Entering OneElI...
 Calculate overlap and kinetic energy integrals
    NBasis = 155  MinDer = 1  MaxDer = 1
 Requested accuracy = 0.1000D-12
 PrsmSu:  NPrtUS=  32 ThrOK=T IAlg=1 NPAlg=1 LenDen=           0.
 Prism:   IPart=     0 DynPar=F LinDyn=F Incr=           1.
 PRISM was handed    13082708 working-precision words and  1275 shell-pairs
 PRISM was handed    13082708 working-precision words and  1275 shell-pairs
 PRISM was handed    13082708 working-precision words and  1275 shell-pairs
 PRISM was handed    13082708 working-precision words and  1275 shell-pairs
 PRISM was handed    13082708 working-precision words and  1275 shell-pairs
 PRISM was handed    13082708 working-precision words and  1275 shell-pairs
 PRISM was handed    13082708 working-precision words and  1275 shell-pairs
 PRISM was handed    13082708 working-precision words and  1275 shell-pairs
 PRISM was handed    13082708 working-precision words and  1275 shell-pairs
 PRISM was handed    13082708 working-precision words and  1275 shell-pairs
[...]
     2  H    0.014429  -0.031440   0.002565   0.002553   0.001379
     3  H    0.014412   0.002565  -0.031509   0.002550   0.001365
     4  H    0.014450   0.002553   0.002550  -0.031545   0.001322
     5  H   -0.006806   0.001379   0.001365   0.001322  -0.995159
 Mulliken charges and spin densities:
               1          2
     1  C   -1.063101   1.029702
     2  H    0.353196  -0.010514
     3  H    0.353141  -0.010617
     4  H    0.353075  -0.010671
     5  H    0.003688  -0.997900
 Sum of Mulliken charges =   0.00000   0.00000
 Mulliken charges and spin densities with hydrogens summed into heavy atoms:
               1          2
     1  C    0.000000   0.000000
 APT charges:
               1
     1  C   -0.151615
     2  H    0.047305
     3  H    0.046872
     4  H    0.046716
     5  H    0.010721
 Sum of APT charges =  -0.00000
 APT charges with hydrogens summed into heavy atoms:
               1
     1  C   -0.000000
 Electronic spatial extent (au):  <R**2>=             74.4419
 Charge=             -0.0000 electrons
 Dipole moment (field-independent basis, Debye):
    X=              0.0003    Y=              0.0510    Z=              0.0001  Tot=              0.0510
 Quadrupole moment (field-independent basis, Debye-Ang):
   XX=             -8.6164   YY=            -10.6156   ZZ=             -8.6158
   XY=             -0.0181   XZ=             -0.0001   YZ=             -0.0103
 Traceless Quadrupole moment (field-independent basis, Debye-Ang):
   XX=              0.6662   YY=             -1.3330   ZZ=              0.6668
   XY=             -0.0181   XZ=             -0.0001   YZ=             -0.0103
 Octapole moment (field-independent basis, Debye-Ang**2):
  XXX=              0.0791  YYY=             15.0451  ZZZ=              0.9554  XYY=              0.0280
  XXY=              4.8698  XXZ=             -0.9138  XZZ=              0.0263  YZZ=              4.8598
  YYZ=              0.0107  XYZ=              0.0086
 Hexadecapole moment (field-independent basis, Debye-Ang**3):
 XXXX=            -16.9195 YYYY=           -115.2973 ZZZZ=            -16.9165 XXXY=             -0.2665
 XXXZ=             -0.0008 YYYX=             -0.2520 YYYZ=             -0.0924 ZZZX=             -0.0005
 ZZZY=             -0.0959 XXYY=            -22.1104 XXZZ=             -5.6393 YYZZ=            -22.1103
 XXYZ=             -0.0420 YYXZ=              0.0001 ZZXY=             -0.0888
 N-N= 1.106147815362D+01 E-N=-1.150032470994D+02  KE= 4.005973503380D+01
  Exact polarizability:  20.791   0.024  25.156   0.000   0.010  20.784
 Approx polarizability:  17.947  -0.004  17.987  -0.000  -0.003  17.947
                          Isotropic Fermi Contact Couplings
        Atom                 a.u.       MegaHertz       Gauss      10(-4) cm-1
     1  C(13)              0.01606       9.02782       3.22135       3.01136
     2  H(1)              -0.01398     -31.23361     -11.14493     -10.41841
     3  H(1)              -0.01398     -31.23905     -11.14687     -10.42022
     4  H(1)              -0.01397     -31.23236     -11.14448     -10.41799
     5  H(1)              -0.29071    -649.71566    -231.83470    -216.72182
 --------------------------------------------------------
       Center         ----  Spin Dipole Couplings  ----
                      3XX-RR        3YY-RR        3ZZ-RR
 --------------------------------------------------------
     1   Atom       -0.561386      1.122924     -0.561539
     2   Atom       -0.074176     -0.003160      0.077336
     3   Atom        0.039433     -0.003145     -0.036288
     4   Atom        0.039446     -0.003144     -0.036302
     5   Atom       -0.004815      0.009631     -0.004816
 --------------------------------------------------------
                        XY            XZ            YZ
 --------------------------------------------------------
     1   Atom        0.015697      0.000086      0.009067
     2   Atom        0.000693     -0.000014     -0.002726
     3   Atom       -0.002017     -0.065613      0.001974
     4   Atom        0.001272      0.065635      0.000739
     5   Atom        0.000070      0.000000      0.000024
 --------------------------------------------------------


 ---------------------------------------------------------------------------------
              Anisotropic Spin Dipole Couplings in Principal Axis System
 ---------------------------------------------------------------------------------

       Atom             a.u.   MegaHertz   Gauss  10(-4) cm-1        Axes

              Baa    -0.5616   -75.360   -26.890   -25.137 -0.0321 -0.0051  0.9995
     1 C(13)  Bbb    -0.5615   -75.352   -26.888   -25.135  0.9994 -0.0095  0.0320
              Bcc     1.1231   150.712    53.778    50.272  0.0093  0.9999  0.0054
 
              Baa    -0.0742   -39.581   -14.123   -13.203  1.0000 -0.0098 -0.0001
     2 H(1)   Bbb    -0.0032    -1.732    -0.618    -0.578  0.0098  0.9994  0.0338
              Bcc     0.0774    41.312    14.741    13.780 -0.0002 -0.0338  0.9994
 
              Baa    -0.0742   -39.583   -14.124   -13.203  0.4999 -0.0099  0.8660
     3 H(1)   Bbb    -0.0032    -1.724    -0.615    -0.575  0.0343  0.9994 -0.0084
              Bcc     0.0774    41.307    14.739    13.778  0.8654 -0.0339 -0.5000
 
              Baa    -0.0742   -39.593   -14.128   -13.207 -0.5001 -0.0001  0.8660
     4 H(1)   Bbb    -0.0032    -1.692    -0.604    -0.564 -0.0158  0.9998 -0.0091
              Bcc     0.0774    41.285    14.731    13.771  0.8658  0.0183  0.5000
 
              Baa    -0.0048    -2.570    -0.917    -0.857 -0.4923  0.0010  0.8704
     5 H(1)   Bbb    -0.0048    -2.569    -0.917    -0.857  0.8704 -0.0050  0.4923
              Bcc     0.0096     5.139     1.834     1.714  0.0049  1.0000  0.0016
 

 ---------------------------------------------------------------------------------

 Calling FoFJK, ICntrl=    100127 FMM=F ISym2X=0 I1Cent= 0 IOpClX= 1 NMat=1 NMatS=1 NMatT=0.
 Full mass-weighted force constant matrix:
 Low frequencies --- -199.7208  -10.6736   -0.0009   -0.0007   -0.0005   54.9372
 Low frequencies ---   59.2650  122.5746  137.8598
 ******    1 imaginary frequencies (negative Signs) ****** 
 Diagonal vibrational polarizability:
        0.0502416       9.7336764       0.0497831
 Harmonic frequencies (cm**-1), IR intensities (KM/Mole), Raman scattering
 activities (A**4/AMU), depolarization ratios for plane and unpolarized
 incident light, reduced masses (AMU), force constants (mDyne/A),
 and normal coordinates:
                      1                      2                      3
                      A                      A                      A
 Frequencies --   -199.7031               122.5693               137.3594
 Red. masses --      1.0672                 1.0147                 1.0148
 Frc consts  --      0.0251                 0.0090                 0.0113
 IR Inten    --   2.743                 0.6154E-03             0.5125E-03
  Atom  AN      X      Y      Z        X      Y      Z        X      Y      Z
     1   6    -0.00  -0.07  -0.00     0.03  -0.00   0.00    -0.00   0.00   0.03
     2   1    -0.00  -0.05  -0.00     0.02   0.02   0.00     0.00   0.76   0.03
     3   1    -0.00  -0.04  -0.00     0.03   0.65   0.00    -0.00  -0.40   0.02
     4   1    -0.00  -0.03  -0.00     0.01  -0.67  -0.00    -0.00  -0.36   0.02
     5   1     0.01   0.99   0.01    -0.36   0.01  -0.01     0.01   0.01  -0.36
                      4                      5                      6
                      A                      A                      A
 Frequencies --    532.6315              1409.6658              1409.7866
 Red. masses --      1.2211                 1.1019                 1.1018
 Frc consts  --      0.2041                 1.2901                 1.2902
 IR Inten    --   83.10                  2.910                  2.904    
  Atom  AN      X      Y      Z        X      Y      Z        X      Y      Z
     1   6     0.00   0.14   0.00    -0.09   0.00  -0.00    -0.00  -0.00   0.09
     2   1    -0.01  -0.58  -0.00     0.81  -0.01  -0.00     0.03  -0.00   0.08
     3   1    -0.00  -0.57  -0.00     0.16   0.00   0.41    -0.38   0.01  -0.57
     4   1    -0.01  -0.57  -0.01     0.13  -0.00  -0.36     0.39   0.00  -0.60
     5   1     0.00   0.05   0.00    -0.00   0.00   0.00     0.00  -0.00   0.00
                      7                      8                      9
                      A                      A                      A
 Frequencies --   3122.3353              3303.5376              3303.7908
 Red. masses --      1.0078                 1.1186                 1.1185
 Frc consts  --      5.7889                 7.1924                 7.1933
 IR Inten    --  0.2434E-01              3.898                  3.865    
  Atom  AN      X      Y      Z        X      Y      Z        X      Y      Z
     1   6    -0.00  -0.00  -0.00     0.00  -0.00   0.10     0.10  -0.00  -0.00
     2   1    -0.00  -0.00   0.58     0.00   0.00  -0.81     0.02  -0.00   0.01
     3   1     0.50  -0.00  -0.29     0.35  -0.00  -0.19    -0.61   0.00   0.36
     4   1    -0.50   0.01  -0.29    -0.36   0.01  -0.19    -0.60   0.01  -0.36
     5   1     0.00  -0.00   0.00     0.00  -0.00  -0.00    -0.00  -0.00   0.00

 -------------------
 - Thermochemistry -
 -------------------
 Temperature   298.150 Kelvin.  Pressure   1.00000 Atm.
 Atom     1 has atomic number  6 and mass  12.00000
 Atom     2 has atomic number  1 and mass   1.00783
 Atom     3 has atomic number  1 and mass   1.00783
 Atom     4 has atomic number  1 and mass   1.00783
 Atom     5 has atomic number  1 and mass   1.00783
 Molecular mass:    16.03130 amu.
 Principal axes and moments of inertia in atomic units:
                           1         2         3
     Eigenvalues --    12.55310  45.29231  45.29320
           X            0.00467  -0.08516   0.99636
           Y            0.99999  -0.00108  -0.00478
           Z            0.00148   0.99637   0.08516
 This molecule is an asymmetric top.
 Rotational symmetry number  1.
 Rotational temperatures (Kelvin)      6.89979     1.91233     1.91229
 Rotational constants (GHZ):         143.76855    39.84652    39.84574
    1 imaginary frequencies ignored.
 Zero-point vibrational energy      79800.9 (Joules/Mol)
                                   19.07288 (Kcal/Mol)
 Warning -- explicit consideration of   3 degrees of freedom as
           vibrations may cause significant error
 Vibrational temperatures:    176.35   197.63   766.34  2028.19  2028.37
          (Kelvin)           4492.34  4753.05  4753.41
 
 Zero-point correction=                           0.030395 (Hartree/Particle)
 Thermal correction to Energy=                    0.034800
 Thermal correction to Enthalpy=                  0.035745
 Thermal correction to Gibbs Free Energy=         0.007868
 Sum of electronic and zero-point Energies=            -40.311544
 Sum of electronic and thermal Energies=               -40.307138
 Sum of electronic and thermal Enthalpies=             -40.306194
 Sum of electronic and thermal Free Energies=          -40.334070
 
                     E (Thermal)             CV                S
                      KCal/Mol        Cal/Mol-Kelvin    Cal/Mol-Kelvin
 Total                   21.838             11.191             58.671
 Electronic               0.000              0.000              0.000
 Translational            0.889              2.981             34.261
 Rotational               0.889              2.981             17.894
 Vibrational             20.060              5.229              6.516
 Vibration     1          0.610              1.930              3.059
 Vibration     2          0.614              1.916              2.840
 Vibration     3          0.888              1.178              0.581
                       Q            Log10(Q)             Ln(Q)
 Total Bot       0.240421D-03         -3.619027         -8.333117
 Total V=0       0.229867D+11         10.361477         23.858183
 Vib (Bot)       0.524583D-13        -13.280186        -30.578758
 Vib (Bot)    1  0.166628D+01          0.221748          0.510593
 Vib (Bot)    2  0.148136D+01          0.170662          0.392963
 Vib (Bot)    3  0.299525D+00         -0.523566         -1.205556
 Vib (V=0)       0.501555D+01          0.700318          1.612542
 Vib (V=0)    1  0.223968D+01          0.350186          0.806333
 Vib (V=0)    2  0.206347D+01          0.314598          0.724389
 Vib (V=0)    3  0.108285D+01          0.034569          0.079598
 Electronic      0.100000D+01          0.000000          0.000000
 Translational   0.252295D+07          6.401908         14.740939
 Rotational      0.181656D+04          3.259251          7.504702
 -------------------------------------------------------------------
 Center     Atomic                   Forces (Hartrees/Bohr)
 Number     Number              X              Y              Z
 -------------------------------------------------------------------
      1        6          -0.000000878   -0.000677442   -0.000000033
      2        1          -0.000000094    0.000003606   -0.000000055
      3        1          -0.000001172    0.000001354   -0.000000284
      4        1          -0.000000148   -0.000003583   -0.000000140
      5        1           0.000002292    0.000676066    0.000000512
 -------------------------------------------------------------------
 Cartesian Forces:  Max     0.000677442 RMS     0.000247120
 -----------------------------------------------------------------------------------------------
                       Internal Coordinate Forces (Hartree/Bohr or radian)
  Cent   Atom   N1       Length/X         N2         Alpha/Y        N3         Beta/Z          J
 -----------------------------------------------------------------------------------------------
      1  C 
      2  H        1  -0.000000(     1)
      3  H        1  -0.000001(     2)      2   0.000002(     5)
      4  H        1   0.000000(     3)      2   0.000000(     6)      3  -0.000006(     8)     0
      5  H        1  -0.000676(     4)      2   0.000006(     7)      3   0.000009(     9)     0
 -----------------------------------------------------------------------------------------------
 Internal  Forces:  Max     0.000676068 RMS     0.000225394

 GradGradGradGradGradGradGradGradGradGradGradGradGradGradGradGradGradGrad
 Berny optimization.
 Search for a local minimum.
 Step number   1 out of a maximum of    2
 All quantities printed in internal units (Hartrees-Bohrs-Radians)
 Second derivative matrix not updated -- analytic derivatives used.
 The second derivative matrix:
                          R1        R2        R3        A2        A3
           R1           0.37168
           R2           0.00003   0.37180
           R3           0.00003   0.00004   0.37180
           A2           0.01582   0.00008  -0.01586   0.18898
           A3           0.01582  -0.01586   0.00008   0.09450   0.18899
           D3           0.00004  -0.00024  -0.00029   0.00155   0.00151
           DH1          0.00000  -0.00011   0.00011  -0.00011   0.00011
           ANG1        -0.00013   0.00007   0.00007  -0.00015  -0.00015
           BB          -0.00000   0.00000   0.00000  -0.00001  -0.00000
                          D3        DH1      ANG1       BB
           D3           0.01010
           DH1         -0.00124   0.00268
           ANG1        -0.00075  -0.00001   0.00267
           BB           0.00042   0.00004   0.00004  -0.00140
 ITU=  0
     Eigenvalues ---    0.00239   0.00268   0.01036   0.09357   0.27570
     Eigenvalues ---    0.37182   0.37267   0.379501000.00000
 Angle between quadratic step and forces=  31.08 degrees.
 Linear search not attempted -- first point.
 Variable       Old X    -DE/DX   Delta X   Delta X   Delta X     New X
                                 (Linear)    (Quad)   (Total)
    R1        2.03765  -0.00000   0.00000   0.00000   0.00000   2.03765
    R2        2.03767  -0.00000   0.00000  -0.00000  -0.00000   2.03767
    R3        2.03767   0.00000   0.00000  -0.00000  -0.00000   2.03767
    A2        2.09440   0.00000   0.00000   0.00002   0.00002   2.09442
    A3        2.09441   0.00000   0.00000  -0.00001  -0.00001   2.09441
    D3        3.16018  -0.00001   0.00000  -0.00007  -0.00007   3.16011
   DH1        1.57621   0.00001   0.00000   0.00325   0.00325   1.57946
   ANG1       1.57290   0.00001   0.00000   0.00219   0.00219   1.57510
    BB        6.42507  -0.00068   0.00000   0.00000   0.00000   6.42507
         Item               Value     Threshold  Converged?
 Maximum Force            0.000009     0.000450     YES
 RMS     Force            0.000004     0.000300     YES
 Maximum Displacement     0.003253     0.001800     NO 
 RMS     Displacement     0.001308     0.001200     NO 
 Predicted change in Energy=-2.092201D-08
 GradGradGradGradGradGradGradGradGradGradGradGradGradGradGradGradGradGrad


 Test job not archived.
 1\1\GINC-NODE-6-6\Freq\UwB97XD\Aug-CC-pVTZ\C1H4\CAVALLOTTI\03-Jun-2023
 \1\\#N Geom=AllCheck Guess=TCheck SCRF=Check Test GenChk UwB97XD/Aug-C
 C-pVTZ Freq\\geom 0\\0,1\C\H,1,R1\H,1,R2,2,A2\H,1,R3,2,A3,3,D3,0\H,1,B
 B,2,ANG1,3,DH1,0\\R1=1.07827643\R2=1.07828773\R3=1.07828676\A2=120.000
 49604\A3=120.00111142\D3=181.06471413\DH1=90.30992454\ANG1=90.12080048
 \BB=3.4\\Version=EM64L-G09RevD.01\HF=-40.3419383\S2=0.99109\S2-1=0.\S2
 A=0.03072\RMSD=3.322e-09\RMSF=2.471e-04\ZeroPoint=0.0303946\Thermal=0.
 0348004\Dipole=0.000123,0.0200809,0.0000476\DipoleDeriv=0.0158389,-0.0
 045062,0.0000156,-0.0045132,-0.4869383,-0.0027783,0.0000045,-0.0029212
 ,0.0162553,0.0439192,0.0010399,-0.0000211,0.0010025,0.1509404,-0.00026
 63,0.0000111,0.0032966,-0.0529434,-0.0286759,0.0030695,0.0414747,0.000
 2118,0.1497183,0.0009883,0.0412931,-0.0006571,0.0195739,-0.0286122,0.0
 001638,-0.041469,0.0029965,0.1491681,0.0018844,-0.0413091,0.0001515,0.
 0195936,-0.00247,0.0002331,-0.0000002,0.0003023,0.0371115,0.0001718,0.
 0000004,0.0001302,-0.0024792\Polar=20.7910079,0.0241942,25.1559911,0.0
 0025,0.0096571,20.7839136\PG=C01 [X(C1H4)]\NImag=1\\0.61980953,-0.0055
 4431,0.02355782,-0.00003172,-0.00321768,0.61985464,-0.05486637,0.00042
 152,-0.00000222,0.04551193,0.00042763,-0.00862688,-0.00018138,-0.00039
 187,0.00343033,0.00000273,0.00024321,-0.35822844,-0.00000189,-0.000204
 56,0.37168334,-0.28242575,0.00044399,0.13144975,0.00468538,0.00003833,
 -0.00385836,0.29019006,0.00005947,-0.00845284,0.00045578,0.00005070,0.
 00269140,0.00001111,-0.00037817,0.00324862,0.13147722,0.00024796,-0.13
 072050,0.02357846,0.00003884,-0.00673786,-0.14130566,-0.00023182,0.127
 12311,-0.28233723,0.00467201,-0.13141663,0.00468320,-0.00007383,0.0038
 5772,-0.01246049,0.00038071,-0.01373369,0.29010112,0.00504975,-0.00852
 777,0.00294340,-0.00007872,0.00270093,-0.00005082,-0.00010199,0.002733
 66,-0.00005150,-0.00497661,0.00333071,-0.13144925,0.00273236,-0.130724
 30,-0.02357320,0.00047304,-0.00673777,0.01373006,-0.00029818,0.0103397
 6,0.14127646,-0.00290660,0.12712704,-0.00018019,0.00000679,0.00000082,
 -0.00001414,-0.00000025,-0.00000020,0.00001080,-0.00011271,-0.00001634
 ,0.00001340,0.00010758,0.00001592,0.00017013,0.00000746,0.00204966,-0.
 00000012,-0.00000162,-0.00019579,0.00000105,-0.00000215,-0.00022084,-0
 .00000349,-0.00000227,-0.00023752,-0.00000063,-0.00000142,-0.00139551,
 0.00000102,-0.00000586,-0.00018140,-0.00000115,-0.00012594,0.00002073,
 -0.00001580,0.00006311,-0.00000451,0.00001614,0.00006551,-0.00000474,-
 0.00000021,0.00000318,0.00016991\\0.00000088,0.00067744,0.00000003,0.0
 0000009,-0.00000361,0.00000005,0.00000117,-0.00000135,0.00000028,0.000
 00015,0.00000358,0.00000014,-0.00000229,-0.00067607,-0.00000051\\\@


 THE FIRST AND LAST THING REQUIRED OF GENIUS IS THE LOVE OF TRUTH.

                          -- GOETHE
 Job cpu time:       0 days  0 hours  7 minutes 29.1 seconds.
 File lengths (MBytes):  RWF=     66 Int=      0 D2E=      0 Chk=      3 Scr=      1
 Normal termination of Gaussian 09 at Sat Jun  3 08:54:53 2023.
