
 Working directory              : /scratch/cc/139156/molpro.XcAEJmyY4J/
 Global scratch directory       : /scratch/cc/139156/molpro.XcAEJmyY4J/
 Wavefunction directory         : /home/chimica2/cavallotti/wfu/
 Main file repository           : /scratch/cc/139156/molpro.XcAEJmyY4J/

 id        : polimi

 Nodes     nprocs
 node-6-7     4
 GA implementation: MPI file
 GA implementation (serial work in mppx): MPI file

 Using customized tuning parameters: mindgm=1; mindgv=20; mindgc=4; mindgr=1; noblas=0; minvec=7
 default implementation of scratch files=sf  


 Variables initialized (1015), CPU time= 0.01 sec
  memory,         400 ,m
   nosym
  geometry={angstrom
   C1
   H2   C1   R1
   H3   C1   R2   H2   A2
   H4   C1   R3   H2   A3   H3   D3
    C21         1 rts    2 aabs1    3 babs1
    H22     C21     R21         1 aabs2    2 babs2
    H23     C21     R22     H22     A22         1 babs3
   H24 C21 R23 H22 A23 H23 D23
  }
  BABS3                          =    89.384699999999995
  BABS2                          =    59.510300000000001
  AABS2                          =    89.906199999999998
  BABS1                          =    89.560199999999995
  AABS1                          =    89.947000000000003
  D3                             =    179.80760000000001
  R21                            =    1.0782000000000000
  R22                            =    1.0782000000000000
  R23                            =    1.0782000000000000
  A22                            =    119.97210000000000
  A23                            =    120.02070000000001
  D23                            =    179.80760000000001
  A3                             =    120.02070000000001
  A2                             =    119.97210000000000
  R3                             =    1.0782000000000000
  R2                             =    1.0782000000000000
  R1                             =    1.0782000000000000
  RTS                            =    10.000000000000000
 
   basis=cc-pvdz
   {multi;closed, 8;occ,10;wf, 18,1,0,;state,1;maxiter,40}
   {RS2,SHIFT=0.2;ORBITAL,IGNORE_ERROR;STATE,1}
   CBSen = energy
  put,molden,molpro.molden
 Commands initialized (834), CPU time= 0.01 sec, 672 directives.
 Default parameters read. Elapsed time= 0.14 sec

 Checking input...
 Passed
1


                                         ***  PROGRAM SYSTEM MOLPRO  ***
                                       Copyright, TTI GmbH Stuttgart, 2015
                                    Version 2022.2 linked Thu Sep 29 12:37:28 2022


 **********************************************************************************************************************************
 LABEL *                                                                                 
  64 bit mpp version                                                                     DATE: 27-May-23          TIME: 09:32:45  
 **********************************************************************************************************************************

 SHA1:             51306cdc306ce2a111a2867affebcb289530e0a7
 **********************************************************************************************************************************

 Memory per process:       400 MW
 Total memory per node:   1600 MW

 GA preallocation disabled
 GA check disabled

 Variable memory set to 400.0 MW

 ZSYMEL=NOSYM

 SETTING BABS3          =        89.38470000                                  
 SETTING BABS2          =        59.51030000                                  
 SETTING AABS2          =        89.90620000                                  
 SETTING BABS1          =        89.56020000                                  
 SETTING AABS1          =        89.94700000                                  
 SETTING D3             =       179.80760000                                  
 SETTING R21            =         1.07820000                                  
 SETTING R22            =         1.07820000                                  
 SETTING R23            =         1.07820000                                  
 SETTING A22            =       119.97210000                                  
 SETTING A23            =       120.02070000                                  
 SETTING D23            =       179.80760000                                  
 SETTING A3             =       120.02070000                                  
 SETTING A2             =       119.97210000                                  
 SETTING R3             =         1.07820000                                  
 SETTING R2             =         1.07820000                                  
 SETTING R1             =         1.07820000                                  
 SETTING RTS            =        10.00000000                                  
 SETTING BASIS          =    CC-PVDZ


 Recomputing integrals since basis changed


 Using spherical harmonics

 Library entry C      S cc-pVDZ              selected for orbital group  1
 Library entry C      P cc-pVDZ              selected for orbital group  1
 Library entry C      D cc-pVDZ              selected for orbital group  1
 Library entry H      S cc-pVDZ              selected for orbital group  2
 Library entry H      P cc-pVDZ              selected for orbital group  2


 PROGRAM * SEWARD (Integral evaluation for generally contracted gaussian basis sets)     Author: Roland Lindh, 1990

 Geometry written to block  1 of record 700

 Orientation using atomic masses  
 Molecule type: Asymmetric top
 Rotational constants:       0.6691486      0.6691493     71.8876738 GHz  (calculated with average atomic masses)

 Point group  C1  



 ATOMIC COORDINATES

 NR  ATOM    CHARGE       X              Y              Z

   1  C1      6.00    0.000094109   -0.000266374   -9.449027658
   2  H2      1.00   -0.762453735    1.889160711   -9.447195524
   3  H3      1.00    2.017755070   -0.283642140   -9.436390237
   4  H4      1.00   -1.254331804   -1.605806783   -9.457566414
   5  C21     6.00   -0.000134121    0.000167654    9.448233582
   6  H22     1.00   -2.015194196    0.301728330    9.444866687
   7  H23     1.00    1.267794898    1.594994817    9.430924442
   8  H24     1.00    0.746906571   -1.895258541    9.474823560

 Bond lengths in Bohr (Angstrom)

 1-2  2.037502708  1-3  2.037502708  1-4  2.037502708  5-6  2.037502708  5-7  2.037502708
     ( 1.078200000)     ( 1.078200000)     ( 1.078200000)     ( 1.078200000)     ( 1.078200000)

 5-8  2.037502708
     ( 1.078200000)

 Bond angles

  2-1-3  119.97210000   2-1-4  120.02070000   3-1-4  120.00692020   6-5-7  119.97210000

  6-5-8  120.02070000   7-5-8  120.00692020

 NUCLEAR CHARGE:                   18
 NUMBER OF PRIMITIVE AOS:          96
 NUMBER OF SYMMETRY AOS:           94
 NUMBER OF CONTRACTIONS:           58   (   58A   )
 NUMBER OF INNER CORE ORBITALS:     0   (    0A   )
 NUMBER OF OUTER CORE ORBITALS:     2   (    2A   )
 NUMBER OF VALENCE ORBITALS:       14   (   14A   )


 NUCLEAR REPULSION ENERGY   23.63882328

 EXTRA SYMMETRY OF AOS IN SYMMETRY 1:   1 1 1 1 1 1 1 1 1 1   1 1 1 1 1 1 1 1 1 1   1 1 1 1 1 1 1 1 1 2   2 2 2 2 2 2 2 2 2 2
                                        2 2 2 2 2 2 2 2 2 2   2 2 2 2 2 2 2 2

 Eigenvalues of metric

         1 0.150E-01 0.150E-01 0.352E-01 0.352E-01 0.352E-01 0.352E-01 0.421E-01 0.421E-01


 Contracted 2-electron integrals neglected if value below      1.0D-11
 AO integral compression algorithm  1   Integral accuracy      1.0D-11

     2.359 MB (compressed) written to integral file ( 71.5%)

     Node minimum: 0.524 MB, node maximum: 0.786 MB


 NUMBER OF SORTED TWO-ELECTRON INTEGRALS:     365512.     BUFFER LENGTH:  32768
 NUMBER OF SEGMENTS:   1  SEGMENT LENGTH:     365512      RECORD LENGTH: 524288

 Memory used in sort:       0.92 MW

 SORT1 READ      506207. AND WROTE       91762. INTEGRALS IN      1 RECORDS. CPU TIME:     0.06 SEC, REAL TIME:     0.15 SEC
 SORT2 READ      367152. AND WROTE     1464616. INTEGRALS IN      8 RECORDS. CPU TIME:     0.01 SEC, REAL TIME:     0.04 SEC

 Node minimum:      365512.  Node maximum:      366796. integrals

 OPERATOR DM      FOR CENTER  0  COORDINATES:    0.000000    0.000000    0.000000


 **********************************************************************************************************************************
 DATASETS  * FILE   NREC   LENGTH (MB)   RECORD NAMES
              1      18       28.78       500      610      700      900      950      970     1000      129      960     1100   
                                          VAR    BASINP    GEOM    SYMINP    ZMAT    AOBASIS   BASIS     P2S    ABASIS      S 
                                         1400     1410     1200     1210     1080     1600     1650     1700   
                                           T        V       H0       H01     AOSYM     SMH    MOLCAS    OPER   

 PROGRAMS   *        TOTAL       INT
 CPU TIMES  *         0.60      0.40
 REAL TIME  *         1.42 SEC
 DISK USED  *        29.15 MB (local),      134.50 MB (total)
 GA USED    *         0.00 MB       (max)       0.00 MB       (current)
 **********************************************************************************************************************************

 PROGRAM * MULTI (Direct Multiconfiguration SCF)       Authors: P.J. Knowles, H.-J. Werner (1984)
                                                                D.A. Kreplin, P.J. Knowles, H.-J. Werner (2019)

 Number of closed-shell orbitals:   8 (    8)
 Number of active  orbitals:        2 (    2)
 Number of external orbitals:      48 (   48)

 State symmetry 1

 Number of active electrons:   2    Spin symmetry=Singlet   Space symmetry=1
 Number of states:             1
 Number of CSFs:               3   (4 determinants, 4 intermediate states)

 Orbital guess generated from atomic densities. Full valence occupancy:   16
 *** IN SYMMETRY 1 ORBITAL  1 SYMMETRY CONTAMINATION OF 0.351D-02 HAS BEEN REMOVED
 *** IN SYMMETRY 1 ORBITAL  2 SYMMETRY CONTAMINATION OF 0.351D-02 HAS BEEN REMOVED
 *** IN SYMMETRY 1 ORBITAL  3 SYMMETRY CONTAMINATION OF 0.245D+00 HAS BEEN REMOVED
 *** IN SYMMETRY 1 ORBITAL  4 SYMMETRY CONTAMINATION OF 0.245D+00 HAS BEEN REMOVED
 *** IN SYMMETRY 1 ORBITAL  5 SYMMETRY CONTAMINATION OF 0.161D+00 HAS BEEN REMOVED
 *** IN SYMMETRY 1 ORBITAL  6 SYMMETRY CONTAMINATION OF 0.161D+00 HAS BEEN REMOVED
 *** IN SYMMETRY 1 ORBITAL  7 SYMMETRY CONTAMINATION OF 0.477D+00 HAS BEEN REMOVED
 *** IN SYMMETRY 1 ORBITAL  8 SYMMETRY CONTAMINATION OF 0.478D+00 HAS BEEN REMOVED
 *** IN SYMMETRY 1 ORBITAL  9 SYMMETRY CONTAMINATION OF 0.487D+00 HAS BEEN REMOVED
 *** IN SYMMETRY 1 ORBITAL 10 SYMMETRY CONTAMINATION OF 0.484D+00 HAS BEEN REMOVED

 EXTRA SYMMETRY OF MOS IN SYMMETRY 1:   2 1 1 2 2 1 2 1 1 2   2 1 2 1 1 2 2 1 1 2   2 1 1 2 2 1 1 2 2 1   2 1 1 2 2 1 1 2 2 1
                                        1 2 1 2 2 1 2 1 2 1   1 2 2 1 1 2 1 2

 Wavefunction dump at record             2140.2

 Convergence thresholds  0.10E-04 (gradient)  0.10E-05 (energy)
 
 Number of orbital rotations:  496  ( 16 closed/active, 384 closed/virtual, 0 active/active, 96 active/virtual )
 Total number of variables:    500
 
 Second-order MCSCF: L-BFGS accelerated
 
 ITER  MIC  NCI  NEG     ENERGY(VAR)    ENERGY(PROJ) ENERGY CHANGE       GRAD(0)  GRAD(ORB)   GRAD(CI)      STEP      TIME
   1    5    4    0    -79.10480403     -79.11934253   -0.01453850    0.17722405 0.00000001 0.00000000  0.88E-01      4.03
   2    3    3    0    -79.11926061     -79.11926341   -0.00000280    0.00243554 0.00000235 0.00000000  0.13E-02      7.37
   3    2    2    0    -79.11926341     -79.11926341   -0.00000000    0.00000072 0.00000000 0.00000000  0.39E-06      9.48

 CONVERGENCE REACHED!  Final gradient:    0.00000000 ( 0.94E-13)
                       Final energy:    -79.11926341
 
 First order charge density matrix for state 1.1 saved on record 2140.2 (density set 1)
 
 Results for state 1.1
 =====================
 !MCSCF STATE 1.1 Energy                       -79.119263414612
 Nuclear energy                                 23.63882328
 Kinetic energy                                 78.99399254
 One electron energy                          -151.70333049
 Two electron energy                            48.94524380
 Virial ratio                                    2.00158583
 
 !MCSCF STATE 1.1 Dipole moment                  0.00001783     0.00005908     0.00165266
 Dipole moment /Debye                            0.00004533     0.00015016     0.00420065
 
 No non-zero expectation values
 
 EXTRA SYMMETRY OF MOS IN SYMMETRY 1:   2 1 2 1 2 1 2 1 1 2   2 1 2 1 2 1 2 1 2 1   2 1 1 2 2 1 2 1 2 1   2 1 2 1 2 1 2 1 2 1
                                        2 1 2 1 2 1 2 1 2 1   2 1 2 1 2 1 2 1
 
 
 Natural orbital dump at molpro section 2140.2 (Orbital set 2)


 **********************************************************************************************************************************
 DATASETS  * FILE   NREC   LENGTH (MB)   RECORD NAMES
              1      19       30.97       500      610      700      900      950      970     1000      129      960     1100   
                                          VAR    BASINP    GEOM    SYMINP    ZMAT    AOBASIS   BASIS     P2S    ABASIS      S 
                                         1400     1410     1200     1210     1080     1600     1650     1700     1380   
                                           T        V       H0       H01     AOSYM     SMH    MOLCAS    OPER     JKOP   

              2       4        0.54       700     1000      520     2140   
                                         GEOM     BASIS   MCVARS    MCSCF   

 PROGRAMS   *        TOTAL     MULTI       INT
 CPU TIMES  *         5.35      4.73      0.40
 REAL TIME  *        12.27 SEC
 DISK USED  *        31.56 MB (local),      144.13 MB (total)
 SF USED    *         7.24 MB
 GA USED    *         0.00 MB       (max)       0.00 MB       (current)
 **********************************************************************************************************************************


 PROGRAM * RS2 (Multireference RS Perturbation Theory)     Authors: H.-J. Werner (1993), P. Celani (1998)


 Level shift= 0.20

 Convergence thresholds:  THRVAR = 1.00D-08  THRDEN = 1.00D-06

 Number of optimized states: 1  Roots:    1
 Number of reference states: 1  Roots:    1

 Reference symmetry:                   1   Singlet 
 Number of electrons:                 18
 Maximum number of shells:             4
 Maximum number of spin couplings:     5

 Reference space:        3 conf        3 CSFs
 N elec internal:       36 conf       36 CSFs
 N-1 el internal:       62 conf       98 CSFs
 N-2 el internal:       76 conf      184 CSFs

 Number of electrons in valence space:                     14
 Maximum number of open shell orbitals in reference space:  2
 Maximum number of open shell orbitals in internal spaces:  6


 Number of core orbitals:           2 (   2 )
 Number of closed-shell orbitals:   6 (   6 )
 Number of active  orbitals:        2 (   2 )
 Number of external orbitals:      48 (  48 )

 Molecular orbitals read from record     2140.2  Type=MCSCF/NATURAL (state 1.1)

 Integral transformation finished. Total CPU:   0.01 sec, npass=  1  Memory used:   0.33 MW


 Number of p-space configurations:   3

 Reference wavefunction optimized for reference space (refopt=1)

 State     Reference Energy 
     1       -79.11926341

 Number of blocks in overlap matrix:     2   Smallest eigenvalue:  0.10D+01
 Number of N-2 electron functions:      61
 Number of N-1 electron functions:      98

 Number of internal configurations:                   36
 Number of singly external configurations:          4704
 Number of doubly external configurations:         70440
 Total number of contracted configurations:        75180
 Total number of uncontracted configurations:     216660

 Weight factors for SA-density in H0:    1.000000

 FIMAX=  0.13D-03  FXMAX=  0.93D-08  DIAG=  F  F  NOREF=1  NOINT=0  IHPPD=2

 Nuclear energy:                      23.63882328
 Core energy:                        -72.29639440
 Zeroth-order valence energy:         -8.36011377
 Zeroth-order total energy:          -57.01768489
 First-order energy:                 -22.10157852

 Using uncontracted singles

 Diagonal Coupling coefficients finished.               Storage:    3121 words, CPU-Time:      0.00 seconds.
 Energy denominators for pairs finished in 0 passes.    Storage:    7322 words, CPU-time:      0.00 seconds.

 A level shift of 0.20 is applied.

  ITER. STATE  ROOT     SQ.NORM     CORR.ENERGY   TOTAL ENERGY   ENERGY CHANGE       DEN1      VAR(S)    VAR(P)      TIME
    1     1     1     1.01023122    -0.00204624   -79.12130966    -0.00204624    -0.25164064  0.10D-01  0.72D-01     0.04
    2     1     1     1.08252858    -0.26783547   -79.38709888    -0.26578922     0.00012780  0.30D-04  0.10D-04     0.05
    3     1     1     1.08245809    -0.26788892   -79.38715234    -0.00005345    -0.00002780  0.41D-07  0.67D-07     0.06
    4     1     1     1.08249421    -0.26789634   -79.38715976    -0.00000742     0.00000028  0.50D-09  0.77D-10     0.07
    5     1     1     1.08249410    -0.26789632   -79.38715974     0.00000002    -0.00000006  0.45D-12  0.13D-11     0.07

 Energies without level shift correction:

    5     1     1     1.08249410    -0.25139750   -79.37066092

 Energy contributions for state 1.1:
 ===================================

            Energy contr.      SQ.Norm of FOWF
 Space I     -0.00000002          0.00000001
 Space S     -0.02247544          0.01012908
 Space P     -0.22892204          0.07236501


 =====================================
 Analysis of CPU times by interactions
 =====================================

       I      S      P

 I   0.0%
 S  14.3%   0.0%
 P   0.0%  14.3%   0.0%

 Initialization:  57.1%
 Other:           14.3%

 Total CPU:        0.1 seconds
 =====================================



 Reference coefficients greater than 0.0500000
 =============================================
 222222/\           1.0000000


 RESULTS FOR STATE 1.1
 =====================

 Coefficient of reference function:   C(0) = 1.00000000 (fixed)   1.00000000 (relaxed)

 Energy contributions of configuration classes

 CLASS          SQ.NORM        ECORR1        ECORR2
 +++++++++++++++++++++++++++++++++++++++++++++++++++
 Internals    0.00000001   -0.00000002    0.26789628
 Singles      0.01012908   -0.02247544   -0.04790094
 Pairs        0.07236501   -0.22892204   -0.48789167
 Total        1.08249410   -0.25139750   -0.26789632
 +++++++++++++++++++++++++++++++++++++++++++++++++++


 Reference energy                     -79.11926341
 Nuclear energy                        23.63882328
 Kinetic energy                        79.16820537
 One electron energy                 -151.57786730
 Two electron energy                   48.55188428
 Virial quotient                       -1.00276569
 Correlation energy                    -0.26789632
 !RSPT2 STATE 1.1 Energy              -79.387159738769

 Properties without orbital relaxation:

 !RSPT2 STATE 1.1 Dipole moment         0.00001922     0.00006264     0.00169311
 Dipole moment /Debye                   0.00004885     0.00015920     0.00430344


 **********************************************************************************************************************************
 DATASETS  * FILE   NREC   LENGTH (MB)   RECORD NAMES
              1      19       30.97       500      610      700      900      950      970     1000      129      960     1100   
                                          VAR    BASINP    GEOM    SYMINP    ZMAT    AOBASIS   BASIS     P2S    ABASIS      S 
                                         1400     1410     1200     1210     1080     1600     1650     1700     1380   
                                           T        V       H0       H01     AOSYM     SMH    MOLCAS    OPER     JKOP   

              2       4        0.54       700     1000      520     2140   
                                         GEOM     BASIS   MCVARS    MCSCF   

 PROGRAMS   *        TOTAL       RS2     MULTI       INT
 CPU TIMES  *         5.47      0.12      4.73      0.40
 REAL TIME  *        12.71 SEC
 DISK USED  *        31.56 MB (local),      144.13 MB (total)
 SF USED    *         8.81 MB
 GA USED    *         0.00 MB       (max)       0.00 MB       (current)
 **********************************************************************************************************************************
 SETTING CBSEN          =       -79.38715974  AU                              

 Dump information in style MOLDEN to molpro.molden                                                                   

 Molecular orbitals read from record     2140.2  Type=MCSCF/NATURAL (state 1.1)
 Occupation numbers read from record     2140.2  Type=MCSCF/NATURAL (state 1.1)
 Orbital energies read from record       2140.2  Type=MCSCF/NATURAL (state 1.1)
 Redundancy group numbers read from rec  2140.2  Type=MCSCF/NATURAL (state 1.1)

 DUMP ORBITAL  1.1 AS ORBITAL    1  occ=    2.0000  eig=  -11.2283  GROUP= 202
 DUMP ORBITAL  3.1 AS ORBITAL    2  occ=    2.0000  eig=   -0.8984  GROUP= 202
 DUMP ORBITAL  5.1 AS ORBITAL    3  occ=    2.0000  eig=   -0.5699  GROUP= 202
 DUMP ORBITAL  7.1 AS ORBITAL    4  occ=    2.0000  eig=   -0.5698  GROUP= 202
 DUMP ORBITAL  2.1 AS ORBITAL    5  occ=    2.0000  eig=  -11.2283  GROUP= 102
 DUMP ORBITAL  4.1 AS ORBITAL    6  occ=    2.0000  eig=   -0.8984  GROUP= 102
 DUMP ORBITAL  6.1 AS ORBITAL    7  occ=    2.0000  eig=   -0.5699  GROUP= 102
 DUMP ORBITAL  8.1 AS ORBITAL    8  occ=    2.0000  eig=   -0.5698  GROUP= 102
 DUMP ORBITAL  9.1 AS ORBITAL    9  occ=    1.0000  eig=   -0.1037  GROUP= 103
 DUMP ORBITAL 10.1 AS ORBITAL   10  occ=    1.0000  eig=   -0.1037  GROUP= 203

 Total charge:      18.000000

 **********************************************************************************************************************************

 RS2/cc-pVDZ energy=    -79.387159738769

             RS2           MULTI
    -79.38715974    -79.11926341
 **********************************************************************************************************************************
 Molpro calculation terminated
