[Molden Format]
[Molpro variables]
_NUMVAR=  1056.000000000000    
_AVOGAD= 0.6022140760000000E+24
_BOLTZ= 0.1380649000000000E-22
_CLIGHTSI=  299792458.0000000    
_JOULE= 0.4359744722207100E-17
_JPCAL=  4.184000000000000    
_PLANCK= 0.6626070150000000E-33
_BOHR= 0.5291772109030000E-10
_ECHARG= 0.1602176634000000E-18
_ENULL= 0.8854187812800001E-11
_MU= 0.1660539066600000E-26
_EMASS= 0.9109383701500001E-30
_AMU2AU=  1822.888486217313    
_CLIGHT=  29979245800.00000    
_EV= 0.3674932217565494E-01
_KJOULE= 0.3808798847133432E-03
_KJOULE/MOL= 0.3808798847133432E-03
_CM= 0.4556335252912009E-05
_CM-1= 0.4556335252912009E-05
_DEB2SI= 0.3335640951981520E-29
_KCAL= 0.1593601437640628E-02
_KCAL/MOL= 0.1593601437640628E-02
_KELVIN= 0.3166811563455608E-05
_HERTZ= 0.1519829846057038E-15
_HZ= 0.1519829846057038E-15
_TOA= 0.5291772109030000    
_TOANG= 0.5291772109030000    
_TORAD= 0.1745329251994330E-01
_TOCM=  219474.6313631965    
_TODEBYE=  2.541746473194078    
_TOE= 0.4803204712570263E-09
_TOEV=  27.21138624598803    
_TOHERTZ=  6579683920501656.    
_TOHZ=  6579683920501656.    
_TOK=  315775.0248040668    
_TOKCAL=  627.5094740630558    
_TOKELVIN=  315775.0248040668    
_TOKJ=  2625.499639479825    
_TOKJOULE=  2625.499639479825    
_TOKG= 0.1660539066600000E-26
_ANG=  1.889726124625770    
_ANGSTROM=  1.889726124625770    
_RPAREF=  0.000000000000000    
_RPADISS=  0.000000000000000    
_IGNORE_UNDEF=  2.000000000000000    
_STRICTCHECK=  0.000000000000000    
!SEWARD=  0.000000000000000    
!MULTI=  0.000000000000000    
!DFMULTI=  0.000000000000000    
_SEW_ONEEL=  0.000000000000000    
_CPPDONE=FALSE
_DKROLL_DONE=  0.000000000000000    
_FNUC_DONE=  0.000000000000000    
_FOCKDONE=  0.000000000000000    
_GRADONE=FALSE
_HESSDONE=FALSE
_INTDONE=TRUE
_SCFDONE=FALSE
_MODUL_BLOCK=FALSE
_MODUL_CUDA=FALSE
_MODUL_SLATER=FALSE
_MODUL_MRCC=TRUE
_MODUL_NBO6=FALSE
_MODUL_NECI=FALSE
_MODUL_AIMS=TRUE
_MODUL_GECCO=FALSE
_ISWINDOWS=FALSE
_MRCC_EXEC=/software/cinetica/mrcc/bin/dmrcc
_FITC_AO_SAVED=FALSE
_FITC_MO_SAVED=FALSE
_SHARED_FS=TRUE
_LSTYP=SEWARD
_INTYP=INTS
_GEOMTYP=ZMAT
_GRADTYP=ALASKA
_DIRECT=FALSE
_DKHO= -1.000000000000000    
_FNUC=  0.000000000000000    
_SYNCM=  0.000000000000000    
_BASIS=CC-PVDZ
_ZORIENT=  1.000000000000000    
!ZORIENT=  0.000000000000000    
_NELEC=  18.00000000000000    
!SPIN=  0.000000000000000    
_QSDSTEP=  0.000000000000000    
_QSDIRC=  0.000000000000000    
_PROGRAM=RS2
_CPUSTEP= 0.1200000000000001    
_SYSSTEP= 0.5000000000000004E-01
_WALLSTEP= 0.4400000000000000    
!DFMP2=  0.000000000000000    
!DFHFENERG=  0.000000000000000    
!SCSGRD=  0.000000000000000    
_CPUTOT=  5.470000000000001    
_DMX= 0.1921945813245906E-04
_DMY= 0.6263560624082416E-04
_DMZ= 0.1693105203430958E-02
_EMP2= -79.38715973876930    
_ENERGR= -79.11926341461199    
_ENERGU= -79.37066091854177    
_ENERGY= -79.38715973876930    
_ENERGY_METHOD=RS2
_ENERGY_BASIS=cc-pVDZ
_GEOMETRY_METHOD=
_GEOMETRY_BASIS=
_ENERGY_AVRG= -79.11926341461196    
_ENUC=  23.63882327622405    
_GRADMETHOD=  9.000000000000000    
_NMRMETHOD=  0.000000000000000    
_NMRMAGNET=  0.000000000000000    
!GRID_FREEZE= -1.000000000000000    
!NEESE_INDEX=  0.000000000000000    
_ITERATIONS=  4.000000000000000    
_LASTNELEC=  2.000000000000000    
_LASTSPIN=  0.000000000000000    
_LASTSYM=  1.000000000000000    
_MPP_PROG=  1.000000000000000    
_MSNSTATES=  0.000000000000000    
_RS2PHASE=  0.000000000000000    
_IPROC_MPP=  0.000000000000000    
_IPROC_MPPX=  0.000000000000000    
_NPROC_MPP=  4.000000000000000    
_NPROC_MPPX=  4.000000000000000    
_NPROC_SMP=  1.000000000000000    
_NUMSTEP=  0.000000000000000    
_ORBITAL=  2140.200000000000    
_PI=  3.141592653589793    
!MCACT=  2.000000000000000    
!MCCLOSED=  8.000000000000000    
!MCFREEZE=  0.000000000000000    
!MCMS2=  0.000000000000000    
!MCNEL=  2.000000000000000    
!MCNSTSYM=  1.000000000000000    
!MCSTATE=  1.000000000000000    
!MCSYM=  1.000000000000000    
!MCWEIGHT=  1.000000000000000    
_SEIG_MIN= 0.1503828796741182E-01
_SEWPROP=TRUE
_STATUS=  1.000000000000000    
_SYSTOT= 0.6200000000000000    
_VERSION=  2022002.000000000    
_WALLTOT=  12.71000000000000    
_DATE=27-May-23
_LASTORB=MCSCF
_OUTPUT=/home/chimica2/cavallotti/qm/barrierless/vrc_autom/folders/ch3+ch3/dist_10.0/molpro.out
_PGROUP=C1
_TIME=09:32:45
_LIBMOL=/software/cinetica/molpro_2022.2/lib/
_VIGRDC=  0.000000000000000    
!VIBCNT=  0.000000000000000    
!RGHFCNT=  0.000000000000000    
!SURFREC=  0.000000000000000    
!XSURFREC=  0.000000000000000    
!XPOLYREC=  0.000000000000000    
!ROTREC=  0.000000000000000    
!POLYREC=  0.000000000000000    
!DIPREC=  0.000000000000000    
!DIP4DREC=  0.000000000000000    
!DIPROT=  0.000000000000000    
!DIP4DROT=  0.000000000000000    
!PTREC=  0.000000000000000    
!PT4DREC=  0.000000000000000    
!VSCFREC=  0.000000000000000    
!VCIREC=  0.000000000000000    
!PVCIREC=  0.000000000000000    
!VMP2REC=  0.000000000000000    
!VMCSCFREC=  0.000000000000000    
!VMRCIREC=  0.000000000000000    
!VIBSTATEREC=  0.000000000000000    
!VIBSTATECNT=  0.000000000000000    
!VIBINFO=  0.000000000000000    
!GAREC=  0.000000000000000    
!MCORB=  21402.00000000000    
!DEFCORE=  2.000000000000000    
!SCORE=  0.000000000000000    
!NEWMOL= -1.000000000000000    
!NEWSYM= -1.000000000000000    
_SLFILES=slscratch
_NGSSTO=  9.000000000000000    
_SIN=SIN
_COS=COS
_TAN=TAN
_ACOS=ACOS
_ASIN=ASIN
_ATAN=ATAN
_COSH=COSH
_SINH=SINH
_TANH=TANH
_ABS=ABS
_MOD=MOD
_ERF=ERF
_REFC=REFC
_ERFC=ERFC
_HYPOT=HYPOT
_J0=J0
_J1=J1
_JN=JN
_GAMMA=GAMMA
_LGAMMA=LGAMMA
_Y0=Y0
_Y1=Y1
_YN=YN
_EXP=EXP
_LOG=LOG
_LOG10=LOG10
_SQRT=SQRT
_INT=INT
_NINT=NINT
_MAX=MAX
_MIN=MIN
_COSMO=  0.000000000000000    
_COSMOIT=  0.000000000000000    
_COSMOES=  0.000000000000000    
_COSMOEDS=  0.000000000000000    
_COSMOEC=  0.000000000000000    
_COSMOEDCORR=  0.000000000000000    
_FEPSI=  1.000000000000000    
_SL_IsMM=  0.000000000000000    
_SL_NSYM=  1.000000000000000    
_SL_System_BitSw=  0.000000000000000    
_SL_Unique_atoms=  0.000000000000000    
_SL_GRAD=  0.000000000000000    
_SL_MAXUPD_Hess=  5.000000000000000    
_SL_N_PRINT_COD=  5.000000000000000    
_SL_PRINT_CODES=  0.000000000000000    
_SL_BasType=  0.000000000000000    
_SL_Energy_Pred=  0.000000000000000    
_SL_New_Coords=  0.000000000000000    
_SL_Total_Nuclea=  0.000000000000000    
_SL_Highest_Mltp=  0.000000000000000    
_SL_Ref_Geom=  0.000000000000000    
_SL_Symmetry_ope=  1.000000000000000    
_SL_agrad=  0.000000000000000    
_SL_GrdMax=  0.000000000000000    
_SL_GrdNorm=  0.000000000000000    
_SL_GrdRMS=  0.000000000000000    
_SL_Hss_Q=  0.000000000000000    
_SL_Hss_X=  0.000000000000000    
_SL_BMxOld=  0.000000000000000    
_SL_KtB=  0.000000000000000    
_SL_TROld=  0.000000000000000    
_SL_No_of_Intern=  0.000000000000000    
_SL_Hess=  0.000000000000000    
_SL_K=  0.000000000000000    
!LATTICE= -1.000000000000000    
!NEWLATTICE=  0.000000000000000    
!LATGRAD_VAR=FALSE
!SEW_LATTICE=  1.000000000000000    
!AIC_ONEEL=  0.000000000000000    
!LOCAL=  0.000000000000000    
!SAVEDOM= -1.000000000000000    
!RESTDOM= -1.000000000000000    
!SAVEDOM_HF= -1.000000000000000    
!RESTDOM_HF= -1.000000000000000    
!HESSREC=  0.000000000000000    
!FREQREC=  0.000000000000000    
!NMODREC=  0.000000000000000    
!GTASKS=  0.000000000000000    
!HTASKS=  0.000000000000000    
!SAVEDOM_EOM= -1.000000000000000    
!RESTDOM_EOM= -1.000000000000000    
!GRADSTATE= -1.000000000000000    
!DEBUG=  0.000000000000000    
!CFIT_CPHF=  0.000000000000000    
!RDOMAUX_CPHF=  0.000000000000000    
!THRAO_CPHF= 0.1000000000000000E-11
!THRMO_CPHF= 0.1000000000000000E-11
!THROV_CPHF= 0.1000000000000000E-11
!THRSW_CPHF= 0.1000000000000000E-11
!THRPROD_CPHF= 0.1000000000000000E-11
!THRAOPR_CPHF= 0.1000000000000000E-11
!CFIT_SCFGRD=  0.000000000000000    
!RDOMAUX_SCFGRD=  0.000000000000000    
!THRAO_SCFGRD= 0.1000000000000000E-11
!THRMO_SCFGRD= 0.1000000000000000E-11
!THROV_SCFGRD= 0.1000000000000000E-11
!THRSW_SCFGRD= 0.1000000000000000E-11
!THRPROD_SCFGRD= 0.1000000000000000E-11
!THRAOPR_SCFGRD= 0.1000000000000000E-11
!LOCFIT_SCF=  0.000000000000000    
!LOCFIT_MP2=  0.000000000000000    
_RIDOM=  0.000000000000000    
!CC2_METHOD=  0.000000000000000    
_BASIS2006=FALSE
_SVDDEL= -1.000000000000000    
_SVDDELA= -1.000000000000000    
_SVDDELP= -1.000000000000000    
_SVDDELF= -1.000000000000000    
_SVDDELS= -1.000000000000000    
_SVDDEL_ABS= -1.000000000000000    
_SVDDELA_ABS= -1.000000000000000    
_SVDDELP_ABS= -1.000000000000000    
_SVDDELF_ABS= -1.000000000000000    
_SVDDELS_ABS= -1.000000000000000    
_MAXBASIS=  0.000000000000000    
!OPT_CONICAL=  0.000000000000000    
!CLEARSP_JGRID=  0.000000000000000    
_GRDHYBR=  0.000000000000000    
_STATEGRAD=  1.000000000000000    
_4EXT_NDISKS=  1.000000000000000    
!EMBEDFLAG=  1.000000000000000    
!EMBED=FALSE
!EMBED_F12=FALSE
!EMBEDNUC=  0.000000000000000    
_EMBEDENERGY=  0.000000000000000    
!EMBED_DFC=FALSE
!NUM_VOIDS=  0.000000000000000    
_IBODY=  0.000000000000000    
_EMBE_CORR=  0.000000000000000    
!EMBED_PROJ=FALSE
!EMB_PROJ_ZMU=  1000000.000000000    
!CORRECTION_HF=  0.000000000000000    
!EMBED_AORB=  0.000000000000000    
!EMBED_NACORR=  0.000000000000000    
!EMBED_MP2=FALSE
!EMBED_TRUNC_PERTURBATION=FALSE
!EMBED_FROZEN=  0.000000000000000    
!EMBED_ACTIVE=  0.000000000000000    
_CHANGE_BASIS=FALSE
_RESTORE_BASIS=FALSE
_FIX_EMBED_GUESS=FALSE
_EMBED_SCF=FALSE
_HUZINAGA_T=FALSE
_HUZINAGA_F=FALSE
_HUZINAGA=FALSE
_HUZINAGA_CORRECT=FALSE
!FASTLATGRAD=  1.000000000000000    
!FASTVLAMBDA= -1.000000000000000    
!IFORCE= -1.000000000000000    
!USESYM= -1.000000000000000    
_SINDEX=  0.000000000000000    
_AVDOM_OSV=  0.000000000000000    
_AVDOM_PNO=  0.000000000000000    
_AVDOM_PAO=  0.000000000000000    
_AVDOM_LMO=  0.000000000000000    
_CC2OSV_FLAG=  0.000000000000000    
_EOMCCSD_CONV=FALSE
_TMADC2_FLAG=FALSE
_PROPADC2_FLAG=FALSE
_LEN_VirQ=  0.000000000000000    
_GRDCC2LR_FLAG=FALSE
_GRDADC2_FLAG=FALSE
_DMX_CC=-0.2389891806238165E-03
_DMY_CC=-0.6274751939905343E-03
_DMZ_CC=-0.7752452840513513E-02
_DMX_NUC= 0.2367286810002200E-03
_DMY_NUC= 0.5840698849999271E-03
_DMZ_NUC= 0.4698058255012683E-02
_RO_VGLOBAL=  0.000000000000000    
_OPT=FALSE
_FREQ=FALSE
_HESS=FALSE
_CMRCC_callName=EMPTY
_CMRCC_callCount=  0.000000000000000    
_GECCO_CIROOT=  1.000000000000000    
_SYM_CATION=  0.000000000000000    
_MON_A=FALSE
_MON_B=FALSE
BABS3=  89.38470000000000    
BABS2=  59.51030000000000    
AABS2=  89.90620000000000    
BABS1=  89.56019999999999    
AABS1=  89.94700000000000    
D3=  179.8076000000000    
R21=  1.078200000000000    
R22=  1.078200000000000    
R23=  1.078200000000000    
A22=  119.9721000000000    
A23=  120.0207000000000    
D23=  179.8076000000000    
A3=  120.0207000000000    
A2=  119.9721000000000    
R3=  1.078200000000000    
R2=  1.078200000000000    
R1=  1.078200000000000    
RTS=  10.00000000000000    
GX1= 0.9410850015533021E-04
GY1=-0.2663744982567013E-03
GZ1= -9.449027657929710    
GX2=-0.7624537354797004    
GY2=  1.889160711231020    
GZ2= -9.447195523802897    
GX3=  2.017755069804818    
GY3=-0.2836421395028789    
GZ3= -9.436390237449087    
GX4= -1.254331804349803    
GY4= -1.605806782639879    
GZ4= -9.457566414056732    
GX5=-0.1341208939748067E-03
GY5= 0.1676537438142535E-03
GZ5=  9.448233581965452    
GX6= -2.015194195885025    
GY6= 0.3017283301484548    
GZ6=  9.444866686562523    
GX7=  1.267794898234221    
GY7=  1.594994816635893    
GZ7=  9.430924442315327    
GX8= 0.7469065707214698    
GY8= -1.895258541462619    
GZ8=  9.474823560476088    
CBSEN= -79.38715973876930    
[Atoms] Angs
C     1    6         0.0000498001       -0.0001409593       -5.0002101018
H     2    1        -0.4034731412        0.9997007961       -4.9992405781
H     3    1         1.0677500001       -0.1500969563       -4.9935226668
H     4    1        -0.6637638058       -0.8497563545       -5.0047286169
C     5    6        -0.0000709737        0.0000887185        4.9997898949
H     6    1        -1.0663948440        0.1596677562        4.9980082105
H     7    1         0.6708881682        0.8440349085        4.9906302926
H     8    1         0.3952459359       -1.0029276289        5.0138607055
[GTO]
   1 0
 s    9  1.00
  0.6665000000D+04  0.6920001793D-03
  0.1000000000D+04  0.5329001381D-02
  0.2280000000D+03  0.2707700701D-01
  0.6471000000D+02  0.1017180264D+00
  0.2106000000D+02  0.2747400712D+00
  0.7495000000D+01  0.4485641162D+00
  0.2797000000D+01  0.2850740738D+00
  0.5215000000D+00  0.1520400394D-01
  0.1596000000D+00 -0.3191000827D-02
 s    9  1.00
  0.6665000000D+04 -0.1460000642D-03
  0.1000000000D+04 -0.1154000508D-02
  0.2280000000D+03 -0.5725002519D-02
  0.6471000000D+02 -0.2331201026D-01
  0.2106000000D+02 -0.6395502813D-01
  0.7495000000D+01 -0.1499810660D+00
  0.2797000000D+01 -0.1272620560D+00
  0.5215000000D+00  0.5445292395D+00
  0.1596000000D+00  0.5804962554D+00
 s    9  1.00
  0.6665000000D+04  0.0000000000D+00
  0.1000000000D+04  0.0000000000D+00
  0.2280000000D+03  0.0000000000D+00
  0.6471000000D+02  0.0000000000D+00
  0.2106000000D+02  0.0000000000D+00
  0.7495000000D+01  0.0000000000D+00
  0.2797000000D+01  0.0000000000D+00
  0.5215000000D+00  0.0000000000D+00
  0.1596000000D+00  0.1000000000D+01
 p    4  1.00
  0.9439000000D+01  0.3810902127D-01
  0.2002000000D+01  0.2094801169D+00
  0.5456000000D+00  0.5085572839D+00
  0.1517000000D+00  0.4688422617D+00
 p    4  1.00
  0.9439000000D+01  0.0000000000D+00
  0.2002000000D+01  0.0000000000D+00
  0.5456000000D+00  0.0000000000D+00
  0.1517000000D+00  0.1000000000D+01
 d    1  1.00
  0.5500000000D+00  0.1000000000D+01
  
   2 0
 s    4  1.00
  0.1301000000D+02  0.1968498999D-01
  0.1962000000D+01  0.1379769298D+00
  0.4446000000D+00  0.4781477569D+00
  0.1220000000D+00  0.5012397451D+00
 s    4  1.00
  0.1301000000D+02  0.0000000000D+00
  0.1962000000D+01  0.0000000000D+00
  0.4446000000D+00  0.0000000000D+00
  0.1220000000D+00  0.1000000000D+01
 p    1  1.00
  0.7270000000D+00  0.1000000000D+01
  
   3 0
 s    4  1.00
  0.1301000000D+02  0.1968498999D-01
  0.1962000000D+01  0.1379769298D+00
  0.4446000000D+00  0.4781477569D+00
  0.1220000000D+00  0.5012397451D+00
 s    4  1.00
  0.1301000000D+02  0.0000000000D+00
  0.1962000000D+01  0.0000000000D+00
  0.4446000000D+00  0.0000000000D+00
  0.1220000000D+00  0.1000000000D+01
 p    1  1.00
  0.7270000000D+00  0.1000000000D+01
  
   4 0
 s    4  1.00
  0.1301000000D+02  0.1968498999D-01
  0.1962000000D+01  0.1379769298D+00
  0.4446000000D+00  0.4781477569D+00
  0.1220000000D+00  0.5012397451D+00
 s    4  1.00
  0.1301000000D+02  0.0000000000D+00
  0.1962000000D+01  0.0000000000D+00
  0.4446000000D+00  0.0000000000D+00
  0.1220000000D+00  0.1000000000D+01
 p    1  1.00
  0.7270000000D+00  0.1000000000D+01
  
   5 0
 s    9  1.00
  0.6665000000D+04  0.6920001793D-03
  0.1000000000D+04  0.5329001381D-02
  0.2280000000D+03  0.2707700701D-01
  0.6471000000D+02  0.1017180264D+00
  0.2106000000D+02  0.2747400712D+00
  0.7495000000D+01  0.4485641162D+00
  0.2797000000D+01  0.2850740738D+00
  0.5215000000D+00  0.1520400394D-01
  0.1596000000D+00 -0.3191000827D-02
 s    9  1.00
  0.6665000000D+04 -0.1460000642D-03
  0.1000000000D+04 -0.1154000508D-02
  0.2280000000D+03 -0.5725002519D-02
  0.6471000000D+02 -0.2331201026D-01
  0.2106000000D+02 -0.6395502813D-01
  0.7495000000D+01 -0.1499810660D+00
  0.2797000000D+01 -0.1272620560D+00
  0.5215000000D+00  0.5445292395D+00
  0.1596000000D+00  0.5804962554D+00
 s    9  1.00
  0.6665000000D+04  0.0000000000D+00
  0.1000000000D+04  0.0000000000D+00
  0.2280000000D+03  0.0000000000D+00
  0.6471000000D+02  0.0000000000D+00
  0.2106000000D+02  0.0000000000D+00
  0.7495000000D+01  0.0000000000D+00
  0.2797000000D+01  0.0000000000D+00
  0.5215000000D+00  0.0000000000D+00
  0.1596000000D+00  0.1000000000D+01
 p    4  1.00
  0.9439000000D+01  0.3810902127D-01
  0.2002000000D+01  0.2094801169D+00
  0.5456000000D+00  0.5085572839D+00
  0.1517000000D+00  0.4688422617D+00
 p    4  1.00
  0.9439000000D+01  0.0000000000D+00
  0.2002000000D+01  0.0000000000D+00
  0.5456000000D+00  0.0000000000D+00
  0.1517000000D+00  0.1000000000D+01
 d    1  1.00
  0.5500000000D+00  0.1000000000D+01
  
   6 0
 s    4  1.00
  0.1301000000D+02  0.1968498999D-01
  0.1962000000D+01  0.1379769298D+00
  0.4446000000D+00  0.4781477569D+00
  0.1220000000D+00  0.5012397451D+00
 s    4  1.00
  0.1301000000D+02  0.0000000000D+00
  0.1962000000D+01  0.0000000000D+00
  0.4446000000D+00  0.0000000000D+00
  0.1220000000D+00  0.1000000000D+01
 p    1  1.00
  0.7270000000D+00  0.1000000000D+01
  
   7 0
 s    4  1.00
  0.1301000000D+02  0.1968498999D-01
  0.1962000000D+01  0.1379769298D+00
  0.4446000000D+00  0.4781477569D+00
  0.1220000000D+00  0.5012397451D+00
 s    4  1.00
  0.1301000000D+02  0.0000000000D+00
  0.1962000000D+01  0.0000000000D+00
  0.4446000000D+00  0.0000000000D+00
  0.1220000000D+00  0.1000000000D+01
 p    1  1.00
  0.7270000000D+00  0.1000000000D+01
  
   8 0
 s    4  1.00
  0.1301000000D+02  0.1968498999D-01
  0.1962000000D+01  0.1379769298D+00
  0.4446000000D+00  0.4781477569D+00
  0.1220000000D+00  0.5012397451D+00
 s    4  1.00
  0.1301000000D+02  0.0000000000D+00
  0.1962000000D+01  0.0000000000D+00
  0.4446000000D+00  0.0000000000D+00
  0.1220000000D+00  0.1000000000D+01
 p    1  1.00
  0.7270000000D+00  0.1000000000D+01


[MO]
 Sym=      1.1
 Ene=     -11.2283
 Spin= Alpha
 Occup=    2.000000
1 -0.000000000000000
2 -0.000000000000000
3 0.000000000000000
4 -0.000000000000000
5 0.000000000000000
6 0.000000000000000
7 -0.000000000000000
8 0.000000000000000
9 -0.000000000000000
10 0.000000000000000
11 0.000000000000000
12 -0.000000000000000
13 -0.000000000000000
14 0.000000000000000
15 0.000000000000000
16 -0.000000000000000
17 -0.000000000000000
18 -0.000000000000000
19 0.000000000000000
20 0.000000000000000
21 -0.000000000000000
22 -0.000000000000000
23 0.000000000000000
24 -0.000000000000000
25 0.000000000000000
26 -0.000000000000000
27 -0.000000000000000
28 -0.000000000000000
29 -0.000000000000000
30 0.000000000000000
31 1.00137965452504
32 0.008010382813278
33 -0.008010237230286
34 -0.000000007950823
35 0.000000156463046
36 0.000005979039003
37 0.000000057538354
38 -0.000000638659940
39 -0.000003994072427
40 0.000362169307358
41 0.000362823908392
42 -0.000724993215749
43 -0.000000782491278
44 0.000000954172856
45 -0.000015942739141
46 -0.000698813139656
47 0.001605995359759
48 -0.000515778106830
49 0.000076833954222
50 -0.000000377660084
51 -0.000698343428713
52 0.001605833501840
53 0.000324634779520
54 0.000407928642967
55 -0.000003947459974
56 -0.000700010704858
57 0.001606411294151
58 0.000191209929606
59 -0.000485416480675
60 0.000007289824456
 Sym=      3.1
 Ene=      -0.8984
 Spin= Alpha
 Occup=    2.000000
1 -0.000000000000115
2 -0.000000000000001
3 0.000000000000001
4 -0.000000000000000
5 -0.000000000000000
6 -0.000000000000000
7 0.000000000000000
8 0.000000000000000
9 0.000000000000000
10 -0.000000000000000
11 -0.000000000000000
12 0.000000000000000
13 -0.000000000000000
14 -0.000000000000000
15 -0.000000000000000
16 0.000000000000000
17 -0.000000000000000
18 0.000000000000000
19 -0.000000000000000
20 -0.000000000000000
21 0.000000000000000
22 -0.000000000000000
23 -0.000000000000000
24 0.000000000000000
25 -0.000000000000000
26 0.000000000000000
27 -0.000000000000000
28 0.000000000000000
29 0.000000000000000
30 0.000000000000000
31 -0.028284826896203
32 0.75453503310679
33 -0.14569335220184
34 -0.000005244617685
35 0.000057722611031
36 0.000482105574913
37 0.000003288904451
38 -0.000033839547566
39 -0.000068138052083
40 0.001636841509250
41 0.001635257695652
42 -0.003272099204902
43 0.000000820932752
44 0.000004243218320
45 -0.000071889955003
46 0.35086730658701
47 -0.14527303882527
48 0.028177974346637
49 -0.004213610642884
50 0.000058806879124
51 0.35087737263379
52 -0.14527242199867
53 -0.017731605434773
54 -0.022299418766858
55 0.000253785048198
56 0.35084275301007
57 -0.14527467705382
58 -0.010445683384261
59 0.026505845893534
60 -0.000360101593014
 Sym=      5.1
 Ene=      -0.5699
 Spin= Alpha
 Occup=    2.000000
1 -0.000000000000005
2 -0.000000000000199
3 0.000000000000038
4 -0.000000000000000
5 -0.000000000000000
6 -0.000000000000000
7 0.000000000000000
8 0.000000000000000
9 0.000000000000000
10 -0.000000000000000
11 -0.000000000000000
12 0.000000000000001
13 0.000000000000000
14 -0.000000000000000
15 -0.000000000000000
16 -0.000000000000092
17 0.000000000000038
18 -0.000000000000003
19 0.000000000000007
20 0.000000000000000
21 -0.000000000000092
22 0.000000000000038
23 0.000000000000007
24 -0.000000000000001
25 0.000000000000000
26 -0.000000000000092
27 0.000000000000038
28 -0.000000000000005
29 -0.000000000000006
30 -0.000000000000000
31 0.000001396390534
32 -0.000071638844206
33 -0.000010590206976
34 -0.31432107167291
35 0.55632519337727
36 -0.007296010840037
37 0.059253517918956
38 -0.10487471999451
39 0.001375549022757
40 0.016893806435314
41 -0.016888327446682
42 -0.000005478988632
43 0.013682097996422
44 -0.000193137040015
45 0.000318246582815
46 0.39259185766390
47 -0.11111800348926
48 0.015166886102414
49 0.007837345902380
50 -0.000105752793456
51 0.23951052146081
52 -0.067791004350115
53 -0.014455113672465
54 0.000705158273631
55 -0.000030624043714
56 -0.63207768601634
57 0.17889427937169
58 0.006536967729303
59 -0.021372235796637
60 0.000304692177363
 Sym=      7.1
 Ene=      -0.5698
 Spin= Alpha
 Occup=    2.000000
1 0.000000000000003
2 -0.000000000000231
3 0.000000000000045
4 -0.000000000001523
5 -0.000000000002640
6 -0.000000000000014
7 0.000000000000287
8 0.000000000000498
9 0.000000000000003
10 -0.000000000000011
11 0.000000000000010
12 0.000000000000001
13 0.000000000000113
14 0.000000000000000
15 0.000000000000000
16 -0.000000000001983
17 0.000000000000575
18 -0.000000000000072
19 0.000000000000052
20 -0.000000000000000
21 -0.000000000001246
22 0.000000000000367
23 0.000000000000041
24 -0.000000000000062
25 0.000000000000000
26 0.000000000002906
27 -0.000000000000809
28 0.000000000000067
29 0.000000000000072
30 0.000000000000000
31 0.000000626614500
32 -0.000032175504347
33 -0.000004944390463
34 0.55638139550730
35 0.31430586118578
36 -0.003570042333573
37 -0.10483186941206
38 -0.059220858177817
39 0.000672674914681
40 -0.011859410503513
41 0.011859029164521
42 0.000000381338992
43 0.019521082321007
44 -0.000197514623198
45 -0.000124914936729
46 -0.50319147689215
47 0.14238178171499
48 -0.016384791640331
49 0.010342283140749
50 -0.000120886014287
51 0.59157749513339
52 -0.16739309645488
53 -0.009247634275285
54 -0.019283140075627
55 0.000211080437270
56 -0.088375218288807
57 0.025005372531039
58 0.012827199712563
59 0.001707048455016
60 -0.000008021638888
 Sym=      2.1
 Ene=     -11.2283
 Spin= Alpha
 Occup=    2.000000
1 1.00137965454011
2 0.008010383130331
3 -0.008010237505336
4 0.000000036159988
5 0.000000049327547
6 0.000005538083529
7 -0.000000457522349
8 -0.000000346341184
9 -0.000003786530386
10 0.000362148790010
11 0.000362981070878
12 -0.000725129860887
13 0.000000785836718
14 0.000007021046631
15 0.000002744393062
16 -0.000698821157833
17 0.001605999927862
18 -0.000195497230256
19 0.000483440705145
20 0.000000949505335
21 -0.000698341704113
22 0.001605832472912
23 0.000516236344957
24 -0.000072763014491
25 0.000003715297628
26 -0.000700003630952
27 0.001606407164263
28 -0.000321316715233
29 -0.000411086946581
30 -0.000001703529737
31 -0.000000000000002
32 -0.000000000000000
33 0.000000000000000
34 0.000000000000000
35 -0.000000000000000
36 -0.000000000000000
37 -0.000000000000000
38 0.000000000000000
39 0.000000000000000
40 -0.000000000000000
41 -0.000000000000000
42 0.000000000000000
43 0.000000000000000
44 -0.000000000000000
45 0.000000000000000
46 0.000000000000000
47 -0.000000000000000
48 0.000000000000000
49 -0.000000000000000
50 0.000000000000000
51 0.000000000000000
52 -0.000000000000000
53 -0.000000000000000
54 -0.000000000000000
55 0.000000000000000
56 0.000000000000000
57 -0.000000000000000
58 -0.000000000000000
59 0.000000000000000
60 -0.000000000000000
 Sym=      4.1
 Ene=      -0.8984
 Spin= Alpha
 Occup=    2.000000
1 -0.028284804680181
2 0.75453516362991
3 -0.14569351134152
4 0.000039444375946
5 0.000029893163316
6 0.000452483848918
7 -0.000026206430019
8 -0.000019154874529
9 -0.000101198913517
10 0.001636692336374
11 0.001636049391656
12 -0.003272741728030
13 -0.000000846920386
14 0.000031680643056
15 0.000012370886641
16 0.35086796913634
17 -0.14527309328142
18 0.010665930670982
19 -0.026419575813404
20 -0.000016571983201
21 0.35087728826316
22 -0.14527241078458
23 -0.028213303767441
24 0.003964766032282
25 -0.000167704289385
26 0.35084227365993
27 -0.14527462489109
28 0.017542340963673
29 0.022451079135526
30 0.000128419698574
31 -0.000000000000013
32 -0.000000000002749
33 0.000000000000532
34 0.000000000000000
35 -0.000000000000000
36 -0.000000000000002
37 -0.000000000000000
38 0.000000000000000
39 0.000000000000000
40 -0.000000000000006
41 -0.000000000000006
42 0.000000000000012
43 -0.000000000000000
44 -0.000000000000000
45 0.000000000000000
46 -0.000000000001278
47 0.000000000000529
48 -0.000000000000103
49 0.000000000000015
50 -0.000000000000000
51 -0.000000000001278
52 0.000000000000529
53 0.000000000000065
54 0.000000000000081
55 -0.000000000000001
56 -0.000000000001278
57 0.000000000000529
58 0.000000000000038
59 -0.000000000000096
60 0.000000000000001
 Sym=      6.1
 Ene=      -0.5699
 Spin= Alpha
 Occup=    2.000000
1 0.000001414159550
2 -0.000072820963271
3 -0.000011287270445
4 0.31927465752940
5 0.55353734771635
6 0.002991974876359
7 -0.060186893725854
8 -0.10434886233346
9 -0.000564003554608
10 0.002142746953526
11 -0.002141592516241
12 -0.000001154437285
13 -0.023698524544180
14 -0.000008193759070
15 -0.000086495919723
16 0.39320250658532
17 -0.11128997770977
18 0.014448883152272
19 -0.009116120264342
20 0.000037825793518
21 0.23879143269634
22 -0.067587830258324
23 -0.006700376166004
24 0.012816464764776
25 -0.000023549957662
26 -0.63196981330330
27 0.17886490841137
28 -0.015111461558286
29 -0.016465754437425
30 -0.000083264423976
31 -0.000000000000005
32 -0.000000000000075
33 0.000000000000015
34 0.000000000000822
35 -0.000000000001455
36 0.000000000000019
37 -0.000000000000155
38 0.000000000000274
39 -0.000000000000004
40 -0.000000000000044
41 0.000000000000044
42 0.000000000000000
43 -0.000000000000036
44 0.000000000000001
45 -0.000000000000001
46 -0.000000000001062
47 0.000000000000305
48 -0.000000000000042
49 -0.000000000000020
50 0.000000000000000
51 -0.000000000000661
52 0.000000000000192
53 0.000000000000040
54 0.000000000000000
55 0.000000000000000
56 0.000000000001619
57 -0.000000000000454
58 -0.000000000000016
59 0.000000000000053
60 -0.000000000000001
 Sym=      8.1
 Ene=      -0.5698
 Spin= Alpha
 Occup=    2.000000
1 0.000000613136381
2 -0.000031512184559
3 -0.000004481949979
4 0.55354226049430
5 -0.31929013412437
6 0.002398346711772
7 -0.10429712396643
8 0.060160354798897
9 -0.000452017317323
10 0.020538989129845
11 -0.020539458969485
12 0.000000469839640
13 0.002475747020311
14 0.000189378715788
15 -0.000067509948553
16 -0.50271459336067
17 0.14224564900839
18 0.000616587675148
19 0.019355730709448
20 0.000075154596616
21 0.59186804871995
22 -0.16747554204941
23 -0.021317366880157
24 -0.001799847282188
25 -0.000157884039315
26 -0.089142300545255
27 0.025222777959993
28 0.007960887688483
29 -0.010207349623136
30 0.000027489583471
31 -0.000000000000004
32 0.000000000000012
33 -0.000000000000002
34 -0.000000000002860
35 0.000000000001493
36 -0.000000000000021
37 0.000000000000539
38 -0.000000000000282
39 0.000000000000004
40 0.000000000000104
41 -0.000000000000104
42 -0.000000000000000
43 0.000000000000004
44 -0.000000000000000
45 0.000000000000002
46 0.000000000003052
47 -0.000000000000864
48 0.000000000000110
49 0.000000000000005
50 -0.000000000000000
51 -0.000000000000605
52 0.000000000000170
53 -0.000000000000036
54 0.000000000000056
55 -0.000000000000001
56 -0.000000000002429
57 0.000000000000687
58 -0.000000000000008
59 -0.000000000000095
60 0.000000000000001
 Sym=      9.1
 Ene=      -0.1037
 Spin= Alpha
 Occup=    1.000000
1 0.000005202965755
2 -0.001068763472364
3 -0.000569594100108
4 -0.005008122852737
5 -0.001953579983228
6 0.89583381632835
7 -0.000573757690282
8 -0.000223599052601
9 0.10260779674319
10 0.000047829307542
11 0.000047863740927
12 -0.000095693048469
13 -0.000000013118086
14 0.000004417124153
15 0.000003048222218
16 0.000500712173066
17 -0.000076587144341
18 -0.000103447290181
19 -0.000058042678547
20 0.019609346342991
21 0.000501079239587
22 -0.000076925337138
23 -0.000125951402089
24 -0.000040461761006
25 0.019608047720667
26 0.000501154652551
27 -0.000076767126535
28 -0.000099478548887
29 -0.000029771849064
30 0.019612255611542
31 -0.000000000000098
32 -0.000000000005776
33 0.000000000001117
34 0.000000000000034
35 -0.000000000000784
36 0.000000000000006
37 -0.000000000000007
38 0.000000000000148
39 -0.000000000000001
40 -0.000000000000025
41 -0.000000000000001
42 0.000000000000025
43 -0.000000000000026
44 0.000000000000000
45 0.000000000000000
46 -0.000000000002834
47 0.000000000001154
48 -0.000000000000223
49 0.000000000000018
50 -0.000000000000000
51 -0.000000000003276
52 0.000000000001278
53 0.000000000000157
54 0.000000000000180
55 -0.000000000000002
56 -0.000000000001944
57 0.000000000000902
58 0.000000000000066
59 -0.000000000000180
60 0.000000000000002
 Sym=     10.1
 Ene=      -0.1037
 Spin= Alpha
 Occup=    1.000000
1 0.000000000000099
2 0.000000000005790
3 -0.000000000001139
4 0.000000000000225
5 0.000000000000090
6 0.000000000022423
7 -0.000000000000081
8 -0.000000000000032
9 0.000000000002566
10 0.000000000000022
11 0.000000000000005
12 -0.000000000000028
13 -0.000000000000010
14 0.000000000000000
15 0.000000000000000
16 0.000000000002714
17 -0.000000000001120