 Entering Gaussian System, Link 0=g09
 Input=geom.com
 Output=geom.log
 Initial command:
 /software/cinetica/g09d1/g09d01/d01/build-node-6-2-59348/src/main/l1.exe "/scratch/cc/139146/Gau-59608.inp" -scrdir="/scratch/cc/139146/"
 Entering Link 1 = /software/cinetica/g09d1/g09d01/d01/build-node-6-2-59348/src/main/l1.exe PID=     59609.
  
 Copyright (c) 1988,1990,1992,1993,1995,1998,2003,2009,2013,
            Gaussian, Inc.  All Rights Reserved.
  
 This is part of the Gaussian(R) 09 program.  It is based on
 the Gaussian(R) 03 system (copyright 2003, Gaussian, Inc.),
 the Gaussian(R) 98 system (copyright 1998, Gaussian, Inc.),
 the Gaussian(R) 94 system (copyright 1995, Gaussian, Inc.),
 the Gaussian 92(TM) system (copyright 1992, Gaussian, Inc.),
 the Gaussian 90(TM) system (copyright 1990, Gaussian, Inc.),
 the Gaussian 88(TM) system (copyright 1988, Gaussian, Inc.),
 the Gaussian 86(TM) system (copyright 1986, Carnegie Mellon
 University), and the Gaussian 82(TM) system (copyright 1983,
 Carnegie Mellon University). Gaussian is a federally registered
 trademark of Gaussian, Inc.
  
 This software contains proprietary and confidential information,
 including trade secrets, belonging to Gaussian, Inc.
  
 This software is provided under written license and may be
 used, copied, transmitted, or stored only in accord with that
 written license.
  
 The following legend is applicable only to US Government
 contracts under FAR:
  
                    RESTRICTED RIGHTS LEGEND
  
 Use, reproduction and disclosure by the US Government is
 subject to restrictions as set forth in subparagraphs (a)
 and (c) of the Commercial Computer Software - Restricted
 Rights clause in FAR 52.227-19.
  
 Gaussian, Inc.
 340 Quinnipiac St., Bldg. 40, Wallingford CT 06492
  
  
 ---------------------------------------------------------------
 Warning -- This program may not be used in any manner that
 competes with the business of Gaussian, Inc. or will provide
 assistance to any competitor of Gaussian, Inc.  The licensee
 of this program is prohibited from giving any competitor of
 Gaussian, Inc. access to this program.  By using this program,
 the user acknowledges that Gaussian, Inc. is engaged in the
 business of creating and licensing software in the field of
 computational chemistry and represents and warrants to the
 licensee that it is not a competitor of Gaussian, Inc. and that
 it will not use this program in any manner prohibited above.
 ---------------------------------------------------------------
  

 Cite this work as:
 Gaussian 09, Revision D.01,
 M. J. Frisch, G. W. Trucks, H. B. Schlegel, G. E. Scuseria, 
 M. A. Robb, J. R. Cheeseman, G. Scalmani, V. Barone, B. Mennucci, 
 G. A. Petersson, H. Nakatsuji, M. Caricato, X. Li, H. P. Hratchian, 
 A. F. Izmaylov, J. Bloino, G. Zheng, J. L. Sonnenberg, M. Hada, 
 M. Ehara, K. Toyota, R. Fukuda, J. Hasegawa, M. Ishida, T. Nakajima, 
 Y. Honda, O. Kitao, H. Nakai, T. Vreven, J. A. Montgomery, Jr., 
 J. E. Peralta, F. Ogliaro, M. Bearpark, J. J. Heyd, E. Brothers, 
 K. N. Kudin, V. N. Staroverov, T. Keith, R. Kobayashi, J. Normand, 
 K. Raghavachari, A. Rendell, J. C. Burant, S. S. Iyengar, J. Tomasi, 
 M. Cossi, N. Rega, J. M. Millam, M. Klene, J. E. Knox, J. B. Cross, 
 V. Bakken, C. Adamo, J. Jaramillo, R. Gomperts, R. E. Stratmann, 
 O. Yazyev, A. J. Austin, R. Cammi, C. Pomelli, J. W. Ochterski, 
 R. L. Martin, K. Morokuma, V. G. Zakrzewski, G. A. Voth, 
 P. Salvador, J. J. Dannenberg, S. Dapprich, A. D. Daniels, 
 O. Farkas, J. B. Foresman, J. V. Ortiz, J. Cioslowski, 
 and D. J. Fox, Gaussian, Inc., Wallingford CT, 2013.
 
 ******************************************
 Gaussian 09:  EM64L-G09RevD.01 24-Apr-2013
                27-May-2023 
 ******************************************
 %mem=400MW
 %chk=tmp
 %NProcShared= 32
 Will use up to   32 processors via shared memory.
 ----------------------------------------------------------------------
 # uwb97xd/aug-cc-pvtz opt=(noeig,intern,maxcyc=50) # int=ultrafine nos
 ym iop(7/33=1) guess=(mix,always)
 ----------------------------------------------------------------------
 1/6=50,10=7,11=1,14=-1,18=40,26=4,38=1/1,3;
 2/12=2,15=1,17=6,18=5,29=3,40=1/2;
 3/5=16,6=1,7=10,11=2,16=1,25=1,30=1,71=1,74=-58,75=-5,116=2/1,2,3;
 4/13=-1/1;
 5/5=2,38=5/2;
 6/7=2,8=2,9=2,10=2,28=1/1;
 7/29=1,30=1,33=1/1,2,3,16;
 1/6=50,10=7,11=1,14=-1,18=40,26=4/3(2);
 2/15=1,29=3/2;
 99//99;
 2/15=1,29=3/2;
 3/5=16,6=1,7=10,11=2,16=1,25=1,30=1,71=1,74=-58,75=-5,116=2/1,2,3;
 4/13=-1/1;
 5/5=2,38=5/2;
 7/30=1,33=1/1,2,3,16;
 1/6=50,11=1,14=-1,18=40,26=4/3(-5);
 2/15=1,29=3/2;
 6/7=2,8=2,9=2,10=2,19=2,28=1/1;
 99/9=1/99;
 ------
 geom 0
 ------
 Symbolic Z-matrix:
 Charge =  0 Multiplicity = 1
 C1
 H2                   C1   R1
 H3                   C1   R2       H2   A2
 H4                   C1   R3       H2   A3       H3   D3       0
 C21                  1    rts      2    aabs1    3    babs1    0
 H22                  C21  R21      1    aabs2    2    babs2    0
 H23                  C21  R22      H22  A22      1    babs3    0
 H24                  C21  R23      H22  A23      H23  D23      0
       Variables:
  BABS3               112.4568                   
  BABS2                59.9832                   
  AABS2               103.7889                   
  BABS1               112.4591                   
  AABS1               103.7826                   
       Constants:
  D3                  179.8076                   
  R21                   1.0782                   
  R22                   1.0782                   
  R23                   1.0782                   
  A22                 119.9721                   
  A23                 120.0207                   
  D23                 179.8076                   
  A3                  120.0207                   
  A2                  119.9721                   
  R3                    1.0782                   
  R2                    1.0782                   
  R1                    1.0782                   
  RTS                   2.2                      
 

 GradGradGradGradGradGradGradGradGradGradGradGradGradGradGradGradGradGrad
 Berny optimization.
 Initialization pass.
                       ----------------------------
                       !    Initial Parameters    !
                       ! (Angstroms and Degrees)  !
 ----------------------                            ----------------------
 !      Name          Value   Derivative information (Atomic Units)     !
 ------------------------------------------------------------------------
 !      BABS3      112.4568   estimate D2E/DX2                          !
 !      BABS2       59.9832   estimate D2E/DX2                          !
 !      AABS2      103.7889   estimate D2E/DX2                          !
 !      BABS1      112.4591   estimate D2E/DX2                          !
 !      AABS1      103.7826   estimate D2E/DX2                          !
 !       D3        179.8076   Frozen                                    !
 !       R21         1.0782   Frozen                                    !
 !       R22         1.0782   Frozen                                    !
 !       R23         1.0782   Frozen                                    !
 !       A22       119.9721   Frozen                                    !
 !       A23       120.0207   Frozen                                    !
 !       D23       179.8076   Frozen                                    !
 !       A3        120.0207   Frozen                                    !
 !       A2        119.9721   Frozen                                    !
 !       R3          1.0782   Frozen                                    !
 !       R2          1.0782   Frozen                                    !
 !       R1          1.0782   Frozen                                    !
 !       RTS         2.2      Frozen                                    !
 ------------------------------------------------------------------------
 Trust Radius=3.00D-01 FncErr=1.00D-07 GrdErr=1.00D-06
 Number of steps in this run=     50 maximum allowed number of steps=    100.
 GradGradGradGradGradGradGradGradGradGradGradGradGradGradGradGradGradGrad

 ---------------------------------------------------------------------------------------------------
                            Z-MATRIX (ANGSTROMS AND DEGREES)
   CD    Cent   Atom    N1       Length/X        N2       Alpha/Y        N3        Beta/Z          J
 ---------------------------------------------------------------------------------------------------
      1      1  C 
      2      2  H        1   1.078200(     1)
      3      3  H        1   1.078200(     2)      2  119.972(     8)
      4      4  H        1   1.078200(     3)      2  120.021(     9)      3  179.808(    14)      0
      5      5  C        1   2.200000(     4)      2  103.783(    10)      3  112.459(    15)      0
      6      6  H        5   1.078200(     5)      1  103.789(    11)      2   59.983(    16)      0
      7      7  H        5   1.078200(     6)      6  119.972(    12)      1  112.457(    17)      0
      8      8  H        5   1.078200(     7)      6  120.021(    13)      7  179.808(    18)      0
 ---------------------------------------------------------------------------------------------------
                         Z-Matrix orientation:                         
 ---------------------------------------------------------------------
 Center     Atomic      Atomic             Coordinates (Angstroms)
 Number     Number       Type             X           Y           Z
 ---------------------------------------------------------------------
      1          6           0        0.000000    0.000000    0.000000
      2          1           0        0.000000    0.000000    1.078200
      3          1           0        0.934011    0.000000   -0.538645
      4          1           0       -0.933548   -0.003135   -0.539437
      5          6           0       -0.816253   -1.974595   -0.524125
      6          1           0       -1.797190   -1.974204   -0.076602
      7          1           0       -0.051804   -2.634068   -0.145670
      8          1           0       -0.600655   -1.318059   -1.351768
 ---------------------------------------------------------------------
                    Distance matrix (angstroms):
                    1          2          3          4          5
     1  C    0.000000
     2  H    1.078200   0.000000
     3  H    1.078200   1.867235   0.000000
     4  H    1.078200   1.867692   1.867562   0.000000
     5  C    2.200000   2.670719   2.638685   1.975005   0.000000
     6  H    2.670813   2.908770   3.401533   2.201184   1.078200
     7  H    2.638601   2.904971   2.839819   2.802559   1.078200
     8  H    1.981248   2.828924   2.180286   1.581052   1.078200
                    6          7          8
     6  H    0.000000
     7  H    1.867235   0.000000
     8  H    1.867692   1.867562   0.000000
 Symmetry turned off by external request.
 Stoichiometry    C2H6
 Framework group  C1[X(C2H6)]
 Deg. of freedom    18
 Full point group                 C1      NOp   1
 Rotational constants (GHZ):     79.8171911     12.6160550     12.5141447
 Standard basis: Aug-CC-pVTZ (5D, 7F)
   230 basis functions,   306 primitive gaussians,   260 cartesian basis functions
     9 alpha electrons        9 beta electrons
       nuclear repulsion energy        37.9222263083 Hartrees.
 NAtoms=    8 NActive=    8 NUniq=    8 SFac= 1.00D+00 NAtFMM=   60 NAOKFM=F Big=F
 Integral buffers will be    131072 words long.
 Raffenetti 2 integral format.
 Two-electron integral symmetry is turned off.
 Nuclear repulsion after empirical dispersion term =       37.9201121649 Hartrees.
 One-electron integrals computed using PRISM.
 NBasis=   230 RedAO= T EigKep=  3.34D-05  NBF=   230
 NBsUse=   230 1.00D-06 EigRej= -1.00D+00 NBFU=   230
 ExpMin= 2.53D-02 ExpMax= 8.24D+03 ExpMxC= 2.81D+02 IAcc=3 IRadAn=         5 AccDes= 0.00D+00
 Harris functional with IExCor= 4639 and IRadAn=       5 diagonalized for initial guess.
 HarFok:  IExCor= 4639 AccDes= 0.00D+00 IRadAn=         5 IDoV= 1 UseB2=F ITyADJ=14
 ICtDFT=  3500011 ScaDFX=  1.000000  1.000000  1.000000  1.000000
 FoFCou: FMM=F IPFlag=           0 FMFlag=      100000 FMFlg1=           0
         NFxFlg=           0 DoJE=T BraDBF=F KetDBF=T FulRan=T
         wScrn=  0.000000 ICntrl=     500 IOpCl=  0 I1Cent=   200000004 NGrid=           0
         NMat0=    1 NMatS0=      1 NMatT0=    0 NMatD0=    1 NMtDS0=    0 NMtDT0=    0
 Symmetry not used in FoFCou.
 Mixing orbitals, IMix= 1 IMixAn=  0 NRI=1 NE=    9 Coef=  7.07106781D-01  7.07106781D-01
 Mixing orbitals, IMix= 1 IMixAn=  0 NRI=1 NE=    9 Coef= -7.07106781D-01  7.07106781D-01
 Initial guess <Sx>= 0.0000 <Sy>= 0.0000 <Sz>= 0.0000 <S**2>= 1.0000 S= 0.6180
 Requested convergence on RMS density matrix=1.00D-08 within 128 cycles.
 Requested convergence on MAX density matrix=1.00D-06.
 Requested convergence on             energy=1.00D-06.
 No special actions if energy rises.
 SCF Done:  E(UwB97XD) =  -79.6940724541     A.U. after   18 cycles
            NFock= 18  Conv=0.20D-08     -V/T= 2.0083
 <Sx>= 0.0000 <Sy>= 0.0000 <Sz>= 0.0000 <S**2>=-0.0000 S=-0.0000
 <L.S>=  0.00000000000    
 Annihilation of the first spin contaminant:
 S**2 before annihilation    -0.0000,   after     0.0000

 **********************************************************************

            Population analysis using the SCF density.

 **********************************************************************

 Alpha  occ. eigenvalues --  -10.29869 -10.29826  -0.81634  -0.73022  -0.54598
 Alpha  occ. eigenvalues --   -0.52127  -0.48898  -0.45665  -0.30090
 Alpha virt. eigenvalues --    0.02646   0.03278   0.04534   0.04771   0.06061
 Alpha virt. eigenvalues --    0.06983   0.07515   0.10374   0.11422   0.12062
 Alpha virt. eigenvalues --    0.13019   0.14036   0.14423   0.14519   0.16837
 Alpha virt. eigenvalues --    0.19256   0.19524   0.22644   0.23650   0.24277
 Alpha virt. eigenvalues --    0.25586   0.28642   0.29513   0.30709   0.31201
 Alpha virt. eigenvalues --    0.31970   0.34926   0.35050   0.35888   0.36435
 Alpha virt. eigenvalues --    0.37576   0.38321   0.38603   0.38801   0.40179
 Alpha virt. eigenvalues --    0.40718   0.40822   0.41796   0.42393   0.43129
 Alpha virt. eigenvalues --    0.43323   0.45114   0.45919   0.46288   0.46697
 Alpha virt. eigenvalues --    0.48630   0.51670   0.52856   0.54578   0.64982
 Alpha virt. eigenvalues --    0.66285   0.69658   0.71178   0.71782   0.73352
 Alpha virt. eigenvalues --    0.73505   0.74416   0.74549   0.77207   0.77809
 Alpha virt. eigenvalues --    0.78024   0.78959   0.82625   0.83660   0.84473
 Alpha virt. eigenvalues --    0.85814   0.86338   0.87154   0.90053   0.91271
 Alpha virt. eigenvalues --    0.91801   0.93444   0.97254   0.97711   0.99668
 Alpha virt. eigenvalues --    1.02893   1.03356   1.05948   1.07287   1.08394
 Alpha virt. eigenvalues --    1.10018   1.10563   1.10961   1.11331   1.15593
 Alpha virt. eigenvalues --    1.17045   1.18457   1.19860   1.21809   1.24949
 Alpha virt. eigenvalues --    1.25506   1.30533   1.32531   1.33929   1.37284
 Alpha virt. eigenvalues --    1.38268   1.40186   1.42109   1.46312   1.48367
 Alpha virt. eigenvalues --    1.50044   1.50186   1.51404   1.52807   1.54542
 Alpha virt. eigenvalues --    1.55497   1.56944   1.57412   1.59912   1.61415
 Alpha virt. eigenvalues --    1.61651   1.62884   1.64130   1.65361   1.71189
 Alpha virt. eigenvalues --    1.71870   1.77311   1.81634   1.82178   1.82500
 Alpha virt. eigenvalues --    1.84994   1.86834   1.89627   1.98604   2.00596
 Alpha virt. eigenvalues --    2.04243   2.06043   2.07478   2.07996   2.09100
 Alpha virt. eigenvalues --    2.15634   2.17399   2.19603   2.23175   2.48197
 Alpha virt. eigenvalues --    2.81745   2.90203   2.92513   2.96076   2.97011
 Alpha virt. eigenvalues --    3.02953   3.06000   3.12122   3.16263   3.17566
 Alpha virt. eigenvalues --    3.29079   3.34024   3.35209   3.36231   3.37041
 Alpha virt. eigenvalues --    3.43206   3.43440   3.45252   3.46531   3.46915
 Alpha virt. eigenvalues --    3.47437   3.49750   3.55476   3.57722   3.60364
 Alpha virt. eigenvalues --    3.66954   3.68184   3.74977   3.75299   3.76621
 Alpha virt. eigenvalues --    3.77584   3.78370   3.83679   3.85921   3.93639
 Alpha virt. eigenvalues --    3.97172   4.05350   4.08406   4.09490   4.10870
 Alpha virt. eigenvalues --    4.16102   4.17017   4.19041   4.22385   4.25298
 Alpha virt. eigenvalues --    4.35492   4.36743   4.41986   4.59484   4.60799
 Alpha virt. eigenvalues --    4.62415   4.67504   4.69009   4.69887   4.72006
 Alpha virt. eigenvalues --    4.75316   4.76099   4.85640   4.87731   4.96571
 Alpha virt. eigenvalues --    5.02050   5.03848   5.07160   5.13787   5.14467
 Alpha virt. eigenvalues --    5.15281   5.17004   5.18000   5.21737   5.26564
 Alpha virt. eigenvalues --    5.27784   5.33523   5.40255   5.46521   5.54903
 Alpha virt. eigenvalues --    5.63823   6.17604   6.18032   6.27279   6.27471
 Alpha virt. eigenvalues --    6.35198   6.41072   6.44430   6.46269  16.48496
 Alpha virt. eigenvalues --   16.98941
  Beta  occ. eigenvalues --  -10.29869 -10.29826  -0.81634  -0.73022  -0.54598
  Beta  occ. eigenvalues --   -0.52127  -0.48898  -0.45665  -0.30090
  Beta virt. eigenvalues --    0.02646   0.03278   0.04534   0.04771   0.06061
  Beta virt. eigenvalues --    0.06983   0.07515   0.10374   0.11422   0.12062
  Beta virt. eigenvalues --    0.13019   0.14036   0.14423   0.14519   0.16837
  Beta virt. eigenvalues --    0.19256   0.19524   0.22644   0.23650   0.24277
  Beta virt. eigenvalues --    0.25586   0.28642   0.29513   0.30709   0.31201
  Beta virt. eigenvalues --    0.31970   0.34926   0.35050   0.35888   0.36435
  Beta virt. eigenvalues --    0.37576   0.38321   0.38603   0.38801   0.40179
  Beta virt. eigenvalues --    0.40718   0.40822   0.41796   0.42393   0.43129
  Beta virt. eigenvalues --    0.43323   0.45114   0.45919   0.46288   0.46697
  Beta virt. eigenvalues --    0.48630   0.51670   0.52856   0.54578   0.64982
  Beta virt. eigenvalues --    0.66285   0.69658   0.71178   0.71782   0.73352
  Beta virt. eigenvalues --    0.73505   0.74416   0.74549   0.77207   0.77809
  Beta virt. eigenvalues --    0.78024   0.78959   0.82625   0.83660   0.84473
  Beta virt. eigenvalues --    0.85814   0.86338   0.87154   0.90053   0.91271
  Beta virt. eigenvalues --    0.91801   0.93444   0.97254   0.97711   0.99668
  Beta virt. eigenvalues --    1.02893   1.03356   1.05948   1.07287   1.08394
  Beta virt. eigenvalues --    1.10018   1.10563   1.10961   1.11331   1.15593
  Beta virt. eigenvalues --    1.17045   1.18457   1.19860   1.21809   1.24949
  Beta virt. eigenvalues --    1.25506   1.30533   1.32531   1.33929   1.37284
  Beta virt. eigenvalues --    1.38268   1.40186   1.42109   1.46312   1.48367
  Beta virt. eigenvalues --    1.50044   1.50186   1.51404   1.52807   1.54542
  Beta virt. eigenvalues --    1.55497   1.56944   1.57412   1.59912   1.61415
  Beta virt. eigenvalues --    1.61651   1.62884   1.64130   1.65361   1.71189
  Beta virt. eigenvalues --    1.71870   1.77311   1.81634   1.82178   1.82500
  Beta virt. eigenvalues --    1.84994   1.86834   1.89627   1.98604   2.00596
  Beta virt. eigenvalues --    2.04243   2.06043   2.07478   2.07996   2.09100
  Beta virt. eigenvalues --    2.15634   2.17399   2.19603   2.23175   2.48197
  Beta virt. eigenvalues --    2.81745   2.90203   2.92513   2.96076   2.97011
  Beta virt. eigenvalues --    3.02953   3.06000   3.12122   3.16263   3.17566
  Beta virt. eigenvalues --    3.29079   3.34024   3.35209   3.36231   3.37041
  Beta virt. eigenvalues --    3.43206   3.43440   3.45252   3.46531   3.46915
  Beta virt. eigenvalues --    3.47437   3.49750   3.55476   3.57722   3.60364
  Beta virt. eigenvalues --    3.66954   3.68184   3.74977   3.75299   3.76621
  Beta virt. eigenvalues --    3.77584   3.78370   3.83679   3.85921   3.93639
  Beta virt. eigenvalues --    3.97172   4.05350   4.08406   4.09490   4.10870
  Beta virt. eigenvalues --    4.16102   4.17017   4.19041   4.22385   4.25298
  Beta virt. eigenvalues --    4.35492   4.36743   4.41986   4.59484   4.60799
  Beta virt. eigenvalues --    4.62415   4.67504   4.69009   4.69887   4.72006
  Beta virt. eigenvalues --    4.75316   4.76099   4.85640   4.87731   4.96571
  Beta virt. eigenvalues --    5.02050   5.03848   5.07160   5.13787   5.14467
  Beta virt. eigenvalues --    5.15281   5.17004   5.18000   5.21737   5.26564
  Beta virt. eigenvalues --    5.27784   5.33523   5.40255   5.46521   5.54903
  Beta virt. eigenvalues --    5.63823   6.17604   6.18032   6.27279   6.27471
  Beta virt. eigenvalues --    6.35198   6.41072   6.44430   6.46269  16.48496
  Beta virt. eigenvalues --   16.98941
          Condensed to atoms (all electrons):
               1          2          3          4          5          6
     1  C    5.932333   0.362317   0.354922   0.322480   0.100902   0.005270
     2  H    0.362317   0.283547   0.007685   0.005859  -0.003450  -0.000238
     3  H    0.354922   0.007685   0.280550   0.007728   0.006510   0.000121
     4  H    0.322480   0.005859   0.007728   0.271964   0.004283  -0.000033
     5  C    0.100902  -0.003450   0.006510   0.004283   5.927124   0.358413
     6  H    0.005270  -0.000238   0.000121  -0.000033   0.358413   0.281191
     7  H   -0.002107   0.000497  -0.000192  -0.000522   0.359408   0.008443
     8  H    0.002294  -0.000590  -0.000107  -0.002549   0.323994   0.007521
               7          8
     1  C   -0.002107   0.002294
     2  H    0.000497  -0.000590
     3  H   -0.000192  -0.000107
     4  H   -0.000522  -0.002549
     5  C    0.359408   0.323994
     6  H    0.008443   0.007521
     7  H    0.281468   0.005998
     8  H    0.005998   0.272116
          Atomic-Atomic Spin Densities.
               1          2          3          4          5          6
     1  C   -0.000000   0.000000  -0.000000  -0.000000  -0.000000  -0.000000
     2  H    0.000000   0.000000  -0.000000  -0.000000  -0.000000  -0.000000
     3  H   -0.000000  -0.000000   0.000000  -0.000000   0.000000  -0.000000
     4  H   -0.000000  -0.000000  -0.000000  -0.000000   0.000000  -0.000000
     5  C   -0.000000  -0.000000   0.000000   0.000000   0.000000   0.000000
     6  H   -0.000000  -0.000000  -0.000000  -0.000000   0.000000  -0.000000
     7  H    0.000000  -0.000000   0.000000   0.000000  -0.000000   0.000000
     8  H   -0.000000   0.000000   0.000000   0.000000   0.000000   0.000000
               7          8
     1  C    0.000000  -0.000000
     2  H   -0.000000   0.000000
     3  H    0.000000   0.000000
     4  H    0.000000   0.000000
     5  C   -0.000000   0.000000
     6  H    0.000000   0.000000
     7  H   -0.000000   0.000000
     8  H    0.000000   0.000000
 Mulliken charges and spin densities:
               1          2
     1  C   -1.078411  -0.000000
     2  H    0.344374   0.000000
     3  H    0.342784   0.000000
     4  H    0.390792  -0.000000
     5  C   -1.077183   0.000000
     6  H    0.339312  -0.000000
     7  H    0.347009  -0.000000
     8  H    0.391323   0.000000
 Sum of Mulliken charges =  -0.00000  -0.00000
 Mulliken charges and spin densities with hydrogens summed into heavy atoms:
               1          2
     1  C   -0.000462  -0.000000
     5  C    0.000462   0.000000
 Electronic spatial extent (au):  <R**2>=            215.7026
 Charge=             -0.0000 electrons
 Dipole moment (field-independent basis, Debye):
    X=              0.0587    Y=             -0.0753    Z=              0.1272  Tot=              0.1590
 Quadrupole moment (field-independent basis, Debye-Ang):
   XX=            -14.3830   YY=            -17.3771   ZZ=            -15.5732
   XY=             -0.1020   XZ=             -0.5437   YZ=             -1.0716
 Traceless Quadrupole moment (field-independent basis, Debye-Ang):
   XX=              1.3948   YY=             -1.5993   ZZ=              0.2046
   XY=             -0.1020   XZ=             -0.5437   YZ=             -1.0716
 Octapole moment (field-independent basis, Debye-Ang**2):
  XXX=             17.4328  YYY=             47.9100  ZZZ=             14.0492  XYY=              8.3969
  XXY=             14.3806  XXZ=              4.3435  XZZ=              7.4064  YZZ=             17.7573
  YYZ=              8.3443  XYZ=              1.5740
 Hexadecapole moment (field-independent basis, Debye-Ang**3):
 XXXX=            -56.9714 YYYY=           -214.5161 ZZZZ=            -43.8445 XXXY=            -33.6648
 XXXZ=            -11.7683 YYYX=            -44.0386 YYYZ=            -35.0480 ZZZX=            -11.1463
 ZZZY=            -26.4358 XXYY=            -44.6671 XXZZ=            -19.0068 YYZZ=            -49.4017
 XXYZ=            -10.2716 YYXZ=             -7.5624 ZZXY=            -14.9597
 N-N= 3.792011216490D+01 E-N=-2.595132848854D+02  KE= 7.904087524180D+01
                          Isotropic Fermi Contact Couplings
        Atom                 a.u.       MegaHertz       Gauss      10(-4) cm-1
     1  C(13)              0.00000       0.00000       0.00000       0.00000
     2  H(1)               0.00000       0.00000       0.00000       0.00000
     3  H(1)               0.00000       0.00000       0.00000       0.00000
     4  H(1)              -0.00000      -0.00000      -0.00000      -0.00000
     5  C(13)             -0.00000      -0.00000      -0.00000      -0.00000
     6  H(1)              -0.00000      -0.00000      -0.00000      -0.00000
     7  H(1)              -0.00000      -0.00000      -0.00000      -0.00000
     8  H(1)               0.00000       0.00001       0.00000       0.00000
 --------------------------------------------------------
       Center         ----  Spin Dipole Couplings  ----
                      3XX-RR        3YY-RR        3ZZ-RR
 --------------------------------------------------------
     1   Atom        0.000000     -0.000000      0.000000
     2   Atom        0.000000     -0.000000     -0.000000
     3   Atom       -0.000000     -0.000000      0.000000
     4   Atom       -0.000000      0.000000      0.000000
     5   Atom       -0.000000      0.000000     -0.000000
     6   Atom        0.000000     -0.000000     -0.000000
     7   Atom        0.000000     -0.000000     -0.000000
     8   Atom       -0.000000     -0.000000      0.000000
 --------------------------------------------------------
                        XY            XZ            YZ
 --------------------------------------------------------
     1   Atom       -0.000000      0.000000     -0.000000
     2   Atom       -0.000000      0.000000      0.000000
     3   Atom        0.000000      0.000000     -0.000000
     4   Atom        0.000000     -0.000000      0.000000
     5   Atom        0.000000      0.000000      0.000000
     6   Atom       -0.000000     -0.000000      0.000000
     7   Atom       -0.000000      0.000000     -0.000000
     8   Atom       -0.000000     -0.000000     -0.000000
 --------------------------------------------------------


 ---------------------------------------------------------------------------------
              Anisotropic Spin Dipole Couplings in Principal Axis System
 ---------------------------------------------------------------------------------

       Atom             a.u.   MegaHertz   Gauss  10(-4) cm-1        Axes

              Baa    -0.0000    -0.000    -0.000    -0.000  0.1334  0.9668  0.2181
     1 C(13)  Bbb     0.0000     0.000     0.000     0.000 -0.5448 -0.1123  0.8310
              Bcc     0.0000     0.000     0.000     0.000  0.8279 -0.2297  0.5118
 
              Baa    -0.0000    -0.000    -0.000    -0.000 -0.0375 -0.4695  0.8821
     2 H(1)   Bbb     0.0000     0.000     0.000     0.000  0.0875  0.8778  0.4710
              Bcc     0.0000     0.000     0.000     0.000  0.9955 -0.0948 -0.0081
 
              Baa    -0.0000    -0.000    -0.000    -0.000  0.7379 -0.4450 -0.5074
     3 H(1)   Bbb    -0.0000    -0.000    -0.000    -0.000  0.4928  0.8689 -0.0455
              Bcc     0.0000     0.000     0.000     0.000  0.4612 -0.2165  0.8605
 
              Baa    -0.0000    -0.000    -0.000    -0.000  0.7145 -0.6521  0.2534
     4 H(1)   Bbb     0.0000     0.000     0.000     0.000 -0.3004  0.0412  0.9529
              Bcc     0.0000     0.000     0.000     0.000  0.6319  0.7570  0.1664
 
              Baa    -0.0000    -0.000    -0.000    -0.000 -0.0393 -0.3744  0.9264
     5 C(13)  Bbb    -0.0000    -0.000    -0.000    -0.000  0.9756 -0.2149 -0.0455
              Bcc     0.0000     0.000     0.000     0.000  0.2162  0.9020  0.3737
 
              Baa    -0.0000    -0.000    -0.000    -0.000  0.4448 -0.4556  0.7711
     6 H(1)   Bbb    -0.0000    -0.000    -0.000    -0.000  0.5832  0.8007  0.1368
              Bcc     0.0000     0.000     0.000     0.000  0.6798 -0.3889 -0.6219
 
              Baa    -0.0000    -0.000    -0.000    -0.000 -0.6109 -0.1351  0.7801
     7 H(1)   Bbb    -0.0000    -0.000    -0.000    -0.000  0.0397  0.9789  0.2007
              Bcc     0.0000     0.000     0.000     0.000  0.7907 -0.1536  0.5926
 
              Baa    -0.0000    -0.000    -0.000    -0.000  0.4952  0.8670  0.0559
     8 H(1)   Bbb    -0.0000    -0.000    -0.000    -0.000  0.8622 -0.4984  0.0907
              Bcc     0.0000     0.000     0.000     0.000 -0.1064 -0.0033  0.9943
 

 ---------------------------------------------------------------------------------

 DipInt: DoE/N= T T RetVal/Mat= T F Init=T NMatP=  1 IDeriv=0 Min/MaxMlt=  1  1
 Entering OneElI...
 Multipole integrals L=1 to 1 MinM= 0 MaxM= 0.
 Requested accuracy = 0.1000D-12
 PrsmSu:  NPrtUS=   1 ThrOK=F IAlg=1 NPAlg=1 LenDen=           0.
 Prism:   IPart=     0 DynPar=F LinDyn=F Incr=          34.
 PRISM was handed   419147073 working-precision words and  3403 shell-pairs
 IPart=  0 NShTot=        3403 NBatch=          44 AvBLen=        77.3
 PrSmSu:  NxtVal=             35.
 Entering OneElI...
 Calculate overlap and kinetic energy integrals
    NBasis = 260  MinDer = 1  MaxDer = 1
 Requested accuracy = 0.1000D-12
 PrsmSu:  NPrtUS=  32 ThrOK=T IAlg=1 NPAlg=1 LenDen=           0.
 Prism:   IPart=     0 DynPar=F LinDyn=F Incr=           1.
 PRISM was handed    13040932 working-precision words and  3403 shell-pairs
 PRISM was handed    13040932 working-precision words and  3403 shell-pairs
 PRISM was handed    13040932 working-precision words and  3403 shell-pairs
 PRISM was handed    13040932 working-precision words and  3403 shell-pairs
 PRISM was handed    13040932 working-precision words and  3403 shell-pairs
 PRISM was handed    13040932 working-precision words and  3403 shell-pairs
 PRISM was handed    13040932 working-precision words and  3403 shell-pairs
 PRISM was handed    13040932 working-precision words and  3403 shell-pairs
 PRISM was handed    13040932 working-precision words and  3403 shell-pairs
 PRISM was handed    13040932 working-precision words and  3403 shell-pairs
 PRISM was handed    13040932 working-precision words and  3403 shell-pairs
 PRISM was handed    13040932 working-precision words and  3403 shell-pairs
 PRISM was handed    13040932 working-precision words and  3403 shell-pairs
 PRISM was handed    13040932 working-precision words and  3403 shell-pairs
 PRISM was handed    13040932 working-precision words and  3403 shell-pairs
 PRISM was handed    13040932 working-precision words and  3403 shell-pairs
 PRISM was handed    13040932 working-precision words and  3403 shell-pairs
 PRISM was handed    13040932 working-precision words and  3403 shell-pairs
 PRISM was handed    13040932 working-precision words and  3403 shell-pairs
 PRISM was handed    13040932 working-precision words and  3403 shell-pairs
 PRISM was handed    13040932 working-precision words and  3403 shell-pairs
 PRISM was handed    13040932 working-precision words and  3403 shell-pairs
 PRISM was handed    13040932 working-precision words and  3403 shell-pairs
 PRISM was handed    13040932 working-precision words and  3403 shell-pairs
 PRISM was handed    13040932 working-precision words and  3403 shell-pairs
 PRISM was handed    13040932 working-precision words and  3403 shell-pairs
 PRISM was handed    13040932 working-precision words and  3403 shell-pairs
 PRISM was handed    13040932 working-precision words and  3403 shell-pairs
 PRISM was handed    13040932 working-precision words and  3403 shell-pairs
 PRISM was handed    13040932 working-precision words and  3403 shell-pairs
 PRISM was handed    13040932 working-precision words and  3403 shell-pairs
 PRISM was handed    13040932 working-precision words and  3403 shell-pairs
 IPart=  0 NShTot=         137 NBatch=          45 AvBLen=         3.0
 IPart= 31 NShTot=          96 NBatch=          20 AvBLen=         4.8
 IPart= 12 NShTot=         105 NBatch=          21 AvBLen=         5.0
 IPart=  7 NShTot=         116 NBatch=          27 AvBLen=         4.3
 IPart=  3 NShTot=         124 NBatch=          32 AvBLen=         3.9
 IPart= 18 NShTot=          98 NBatch=          21 AvBLen=         4.7
 IPart= 24 NShTot=          96 NBatch=          20 AvBLen=         4.8
 IPart= 11 NShTot=         108 NBatch=          21 AvBLen=         5.1
 IPart= 16 NShTot=          99 NBatch=          21 AvBLen=         4.7
 IPart= 26 NShTot=          96 NBatch=          20 AvBLen=         4.8
 IPart=  6 NShTot=         116 NBatch=          27 AvBLen=         4.3
 IPart= 20 NShTot=          97 NBatch=          21 AvBLen=         4.6
 IPart= 25 NShTot=          96 NBatch=          20 AvBLen=         4.8
 IPart=  8 NShTot=         112 NBatch=          24 AvBLen=         4.7
 IPart= 27 NShTot=          96 NBatch=          20 AvBLen=         4.8
 IPart= 21 NShTot=          97 NBatch=          21 AvBLen=         4.6
 IPart= 22 NShTot=          97 NBatch=          21 AvBLen=         4.6
 IPart= 30 NShTot=          96 NBatch=          20 AvBLen=         4.8
 IPart= 23 NShTot=          97 NBatch=          21 AvBLen=         4.6
 IPart=  2 NShTot=         124 NBatch=          32 AvBLen=         3.9
 IPart= 19 NShTot=          98 NBatch=          21 AvBLen=         4.7
 IPart=  4 NShTot=         120 NBatch=          31 AvBLen=         3.9
 IPart=  1 NShTot=         134 NBatch=          42 AvBLen=         3.2
 IPart= 17 NShTot=          99 NBatch=          21 AvBLen=         4.7
 IPart=  9 NShTot=         112 NBatch=          24 AvBLen=         4.7
 IPart= 13 NShTot=         105 NBatch=          21 AvBLen=         5.0
 IPart= 28 NShTot=          96 NBatch=          20 AvBLen=         4.8
 IPart= 10 NShTot=         110 NBatch=          22 AvBLen=         5.0
 IPart= 15 NShTot=         105 NBatch=          21 AvBLen=         5.0
 IPart=  5 NShTot=         120 NBatch=          31 AvBLen=         3.9
 IPart= 14 NShTot=         105 NBatch=          21 AvBLen=         5.0
 IPart= 29 NShTot=          96 NBatch=          20 AvBLen=         4.8
 PrSmSu:  NxtVal=             33.
 Entering OneElI...
 Calculate potential energy integrals
    NBasis = 260  MinDer = 1  MaxDer = 1
 Requested accuracy = 0.1000D-12
 PrsmSu:  NPrtUS=  32 ThrOK=T IAlg=1 NPAlg=1 LenDen=           0.
 Prism:   IPart=     0 DynPar=F LinDyn=F Incr=           8.
 PRISM was handed    13045385 working-precision words and  3401 shell-pairs
 PRISM was handed    13045385 working-precision words and  3401 shell-pairs
 PRISM was handed    13045385 working-precision words and  3401 shell-pairs
 PRISM was handed    13045385 working-precision words and  3401 shell-pairs
 PRISM was handed    13045385 working-precision words and  3401 shell-pairs
 PRISM was handed    13045385 working-precision words and  3401 shell-pairs
 PRISM was handed    13045385 working-precision words and  3401 shell-pairs
 PRISM was handed    13045385 working-precision words and  3401 shell-pairs
 PRISM was handed    13045385 working-precision words and  3401 shell-pairs
 PRISM was handed    13045385 working-precision words and  3401 shell-pairs
 PRISM was handed    13045385 working-precision words and  3401 shell-pairs
 PRISM was handed    13045385 working-precision words and  3401 shell-pairs
 PRISM was handed    13045385 working-precision words and  3401 shell-pairs
 PRISM was handed    13045385 working-precision words and  3401 shell-pairs
 PRISM was handed    13045385 working-precision words and  3401 shell-pairs
 PRISM was handed    13045385 working-precision words and  3401 shell-pairs
 PRISM was handed    13045385 working-precision words and  3401 shell-pairs
 PRISM was handed    13045385 working-precision words and  3401 shell-pairs
 PRISM was handed    13045385 working-precision words and  3401 shell-pairs
 PRISM was handed    13045385 working-precision words and  3401 shell-pairs
 PRISM was handed    13045385 working-precision words and  3401 shell-pairs
 PRISM was handed    13045385 working-precision words and  3401 shell-pairs
 PRISM was handed    13045385 working-precision words and  3401 shell-pairs
 PRISM was handed    13045385 working-precision words and  3401 shell-pairs
 PRISM was handed    13045385 working-precision words and  3401 shell-pairs
 PRISM was handed    13045385 working-precision words and  3401 shell-pairs
 PRISM was handed    13045385 working-precision words and  3401 shell-pairs
 PRISM was handed    13045385 working-precision words and  3401 shell-pairs
 PRISM was handed    13045385 working-precision words and  3401 shell-pairs
 PRISM was handed    13045385 working-precision words and  3401 shell-pairs
 PRISM was handed    13045385 working-precision words and  3401 shell-pairs
 PRISM was handed    13045385 working-precision words and  3401 shell-pairs
 IPart=  0 NShTot=        1104 NBatch=         138 AvBLen=         8.0
 IPart= 11 NShTot=         856 NBatch=         107 AvBLen=         8.0
 IPart= 26 NShTot=         760 NBatch=          95 AvBLen=         8.0
 IPart= 19 NShTot=         784 NBatch=          98 AvBLen=         8.0
 IPart= 30 NShTot=         760 NBatch=          95 AvBLen=         8.0
 IPart= 12 NShTot=         840 NBatch=         105 AvBLen=         8.0
 IPart= 20 NShTot=         768 NBatch=          96 AvBLen=         8.0
 IPart=  3 NShTot=        1000 NBatch=         125 AvBLen=         8.0
 IPart= 10 NShTot=         872 NBatch=         109 AvBLen=         8.0
 IPart= 25 NShTot=         760 NBatch=          95 AvBLen=         8.0
 IPart= 22 NShTot=         768 NBatch=          96 AvBLen=         8.0
 IPart= 29 NShTot=         760 NBatch=          95 AvBLen=         8.0
 IPart= 18 NShTot=         792 NBatch=          99 AvBLen=         8.0
 IPart=  4 NShTot=         968 NBatch=         121 AvBLen=         8.0
 IPart=  2 NShTot=        1008 NBatch=         126 AvBLen=         8.0
 IPart= 27 NShTot=         760 NBatch=          95 AvBLen=         8.0
 IPart= 28 NShTot=         760 NBatch=          95 AvBLen=         8.0
 IPart= 13 NShTot=         840 NBatch=         105 AvBLen=         8.0
 IPart=  1 NShTot=        1072 NBatch=         134 AvBLen=         8.0
 IPart= 23 NShTot=         768 NBatch=          96 AvBLen=         8.0
 IPart=  6 NShTot=         936 NBatch=         117 AvBLen=         8.0
 IPart= 15 NShTot=         832 NBatch=         104 AvBLen=         8.0
 IPart= 31 NShTot=         760 NBatch=          95 AvBLen=         8.0
 IPart= 21 NShTot=         768 NBatch=          96 AvBLen=         8.0
 IPart=  9 NShTot=         896 NBatch=         112 AvBLen=         8.0
 IPart=  5 NShTot=         968 NBatch=         121 AvBLen=         8.0
 IPart= 24 NShTot=         760 NBatch=          95 AvBLen=         8.0
 IPart=  8 NShTot=         896 NBatch=         112 AvBLen=         8.0
 IPart=  7 NShTot=         936 NBatch=         117 AvBLen=         8.0
 IPart= 16 NShTot=         816 NBatch=         102 AvBLen=         8.0
 IPart= 14 NShTot=         832 NBatch=         104 AvBLen=         8.0
 IPart= 17 NShTot=         808 NBatch=         101 AvBLen=         8.0
 PrSmSu:  NxtVal=            257.
 l701 out
 I=    0 X=   2.307704149751D-02 Y=  -2.962213100047D-02 Z=   5.004360206765D-02
 I=    1 X=   1.493048207368D+00 Y=   3.026611863117D+00 Z=   5.949394192252D-01
 I=    2 X=   7.735650237088D-02 Y=   8.439536279113D-02 Z=   3.219977968044D+00
 I=    3 X=   2.905493526084D+00 Y=   3.730643141242D-01 Z=  -1.521362679767D+00
 I=    4 X=  -2.609955911759D+00 Y=   1.619172744368D-01 Z=  -1.495099910766D+00
 I=    5 X=  -1.556394607597D+00 Y=  -2.973625373797D+00 Z=  -7.261712668543D-01
 I=    6 X=  -3.048693562589D+00 Y=  -3.259819967019D-01 Z=   1.217739450719D+00
 I=    7 X=   2.197048413328D+00 Y=  -2.073315818003D+00 Z=   1.132914009540D+00
 I=    8 X=   5.420974327953D-01 Y=   1.726934374032D+00 Z=  -2.422936990141D+00
 ICntrl=      2127.
 Calling FoFJK, ICntrl=      2127 FMM=F ISym2X=0 I1Cent= 0 IOpClX= 1 NMat=1 NMatS=1 NMatT=0.
 FoFJK:  IHMeth= 1 ICntrl=    2127 DoSepK=T KAlg= 0 I1Cent=   0 FoldK=F
 IRaf=         1 NMat=   1 IRICut=       1 DoRegI=T DoRafI=F ISym2E= 0.
 FoFCou: FMM=F IPFlag=           0 FMFlag=      100000 FMFlg1=         800
         NFxFlg=           0 DoJE=F BraDBF=F KetDBF=F FulRan=T
         wScrn=  0.000000 ICntrl=    2527 IOpCl=  0 I1Cent=           0 NGrid=           0
         NMat0=    1 NMatS0=      1 NMatT0=    0 NMatD0=    1 NMtDS0=    0 NMtDT0=    0
 Symmetry not used in FoFCou.
 FoFCou:  KetSym=F NOpSet=  1 NOpAb=1 NOp=  1.
 FoFCou:  CnvScl= 1.00D+00 Thresh= 1.00D-10 IAcrcy=      10.
 PrismS was handed   419076250 working-precision words and  3403 shell-pairs
 FoFCou: LinMIO=F DoNuc=F BraDBF=F KetDBF=F HaveP=T PDBF=F HaveZ=T HaveW=F
         NIJTC =      10 NIJTAt=       0 NIJTCD=       0 NIJTT =      10
         IJTBeg=       1 IJTEnd=      10 KLTBeg=       1 KLTEnd=      10
         IPTBeg=       1 IPTEnd=      10 IPTBCv=       1 IPTECv=      10
         IZTBeg=       1 IZTEnd=      10 IZTBCv=       1 IZTECv=      10
         IWTBeg=      11 IWTEnd=      10 IWTBCv=      11 IWTECv=      10
         INTBeg=       1 INTEnd=       0 IFTBCv=       1 IFTECv=      10
 NCel replicated for PrismC:     1
 CoulSu:  IncDef=  1024 NBBP=        5791906 NTPThr=   100 NPartT=   32 Incr=        1024 LDynOK=F.
 CoulSu:  NPrtUS=  32 ThrOK=T IAlg=1 NPAlg=1 LenDen=           0 LWGrdD=           0 DoCopy=F.
 Enter PrismC: JobTyp=21 DoJE=F Cont=F.
 Enter PrismC: JobTyp=21 DoJE=F Cont=F.
 Enter PrismC: JobTyp=21 DoJE=F Cont=F.
 Enter PrismC: JobTyp=21 DoJE=F Cont=F.
 Enter PrismC: JobTyp=21 DoJE=F Cont=F.
 Enter PrismC: JobTyp=21 DoJE=F Cont=F.
 Enter PrismC: JobTyp=21 DoJE=F Cont=F.
 Enter PrismC: JobTyp=21 DoJE=F Cont=F.
 Enter PrismC: JobTyp=21 DoJE=F Cont=F.
 Enter PrismC: JobTyp=21 DoJE=F Cont=F.
 Enter PrismC: JobTyp=21 DoJE=F Cont=F.
 Enter PrismC: JobTyp=21 DoJE=F Cont=F.
 Enter PrismC: JobTyp=21 DoJE=F Cont=F.
 Enter PrismC: JobTyp=21 DoJE=F Cont=F.
 Enter PrismC: JobTyp=21 DoJE=F Cont=F.
 Enter PrismC: JobTyp=21 DoJE=F Cont=F.
 Enter PrismC: JobTyp=21 DoJE=F Cont=F.
 Enter PrismC: JobTyp=21 DoJE=F Cont=F.
 Enter PrismC: JobTyp=21 DoJE=F Cont=F.
 Enter PrismC: JobTyp=21 DoJE=F Cont=F.
 Enter PrismC: JobTyp=21 DoJE=F Cont=F.
 Enter PrismC: JobTyp=21 DoJE=F Cont=F.
 Enter PrismC: JobTyp=21 DoJE=F Cont=F.
 Enter PrismC: JobTyp=21 DoJE=F Cont=F.
 Enter PrismC: JobTyp=21 DoJE=F Cont=F.
 Enter PrismC: JobTyp=21 DoJE=F Cont=F.
 PrismC was handed    13042212 working-precision words and  3403 shell-pairs
 Enter PrismC: JobTyp=21 DoJE=F Cont=F.
 Enter PrismC: JobTyp=21 DoJE=F Cont=F.
 Enter PrismC: JobTyp=21 DoJE=F Cont=F.
 Enter PrismC: JobTyp=21 DoJE=F Cont=F.
 PrismC was handed    13042212 working-precision words and  3403 shell-pairs
 Enter PrismC: JobTyp=21 DoJE=F Cont=F.
 PrismC was handed    13042212 working-precision words and  3403 shell-pairs
 PrismC was handed    13042212 working-precision words and  3403 shell-pairs
 PrismC was handed    13042212 working-precision words and  3403 shell-pairs
 PrismC was handed    13042212 working-precision words and  3403 shell-pairs
 PrismC was handed    13042212 working-precision words and  3403 shell-pairs
 PrismC was handed    13042212 working-precision words and  3403 shell-pairs
 PrismC was handed    13042212 working-precision words and  3403 shell-pairs
 PrismC was handed    13042212 working-precision words and  3403 shell-pairs
 PrismC was handed    13042212 working-precision words and  3403 shell-pairs
 PrismC was handed    13042212 working-precision words and  3403 shell-pairs
 PrismC was handed    13042212 working-precision words and  3403 shell-pairs
 PrismC was handed    13042212 working-precision words and  3403 shell-pairs
 PrismC was handed    13042212 working-precision words and  3403 shell-pairs
 PrismC was handed    13042212 working-precision words and  3403 shell-pairs
 PrismC was handed    13042212 working-precision words and  3403 shell-pairs
 PrismC was handed    13042212 working-precision words and  3403 shell-pairs
 PrismC was handed    13042212 working-precision words and  3403 shell-pairs
 PrismC was handed    13042212 working-precision words and  3403 shell-pairs
 PrismC was handed    13042212 working-precision words and  3403 shell-pairs
 PrismC was handed    13042212 working-precision words and  3403 shell-pairs
 PrismC was handed    13042212 working-precision words and  3403 shell-pairs
 PrismC was handed    13042212 working-precision words and  3403 shell-pairs
 PrismC was handed    13042212 working-precision words and  3403 shell-pairs
 PrismC was handed    13042212 working-precision words and  3403 shell-pairs
 Enter PrismC: JobTyp=21 DoJE=F Cont=F.
 PrismC:  IPart=     0 DynPar=T LinDyn=F Incr=        1024 UseFst=F UseS4=T IGathr=2.
 PrismC was handed    13042212 working-precision words and  3403 shell-pairs
 PrismC was handed    13042212 working-precision words and  3403 shell-pairs
 PrismC was handed    13042212 working-precision words and  3403 shell-pairs
 PrismC was handed    13042212 working-precision words and  3403 shell-pairs
 PrismC was handed    13042212 working-precision words and  3403 shell-pairs
 PrismC was handed    13042212 working-precision words and  3403 shell-pairs
 IPart=  2 NShTot=      191950 NShNF=      191950 NShFF=           0 NBatch=        1640 AvBLen=       117.0
 IPart= 17 NShTot=      178877 NShNF=      178877 NShFF=           0 NBatch=        1598 AvBLen=       111.9
 IPart= 13 NShTot=      185056 NShNF=      185056 NShFF=           0 NBatch=        1534 AvBLen=       120.6
 IPart= 18 NShTot=      172058 NShNF=      172058 NShFF=           0 NBatch=        1424 AvBLen=       120.8
 IPart=  9 NShTot=      169897 NShNF=      169897 NShFF=           0 NBatch=        1645 AvBLen=       103.3
 IPart= 25 NShTot=      185458 NShNF=      185458 NShFF=           0 NBatch=        1452 AvBLen=       127.7
 IPart=  0 NShTot=      177193 NShNF=      177193 NShFF=           0 NBatch=        1593 AvBLen=       111.2
 IPart= 30 NShTot=      184093 NShNF=      184093 NShFF=           0 NBatch=        1575 AvBLen=       116.9
 IPart= 26 NShTot=      166601 NShNF=      166601 NShFF=           0 NBatch=        1598 AvBLen=       104.3
 IPart= 29 NShTot=      176152 NShNF=      176152 NShFF=           0 NBatch=        1631 AvBLen=       108.0
 IPart= 21 NShTot=      177889 NShNF=      177889 NShFF=           0 NBatch=        1540 AvBLen=       115.5
 IPart= 10 NShTot=      174398 NShNF=      174398 NShFF=           0 NBatch=        1611 AvBLen=       108.3
 IPart= 28 NShTot=      180497 NShNF=      180497 NShFF=           0 NBatch=        1746 AvBLen=       103.4
 IPart=  7 NShTot=      170773 NShNF=      170773 NShFF=           0 NBatch=        1594 AvBLen=       107.1
 IPart= 31 NShTot=      173430 NShNF=      173430 NShFF=           0 NBatch=        1418 AvBLen=       122.3
 IPart= 14 NShTot=      197518 NShNF=      197518 NShFF=           0 NBatch=        2148 AvBLen=        92.0
 IPart= 15 NShTot=      169927 NShNF=      169927 NShFF=           0 NBatch=        1115 AvBLen=       152.4
 IPart= 24 NShTot=      175995 NShNF=      175995 NShFF=           0 NBatch=        1620 AvBLen=       108.6
 IPart= 22 NShTot=      192668 NShNF=      192668 NShFF=           0 NBatch=        2033 AvBLen=        94.8
 IPart= 11 NShTot=      165331 NShNF=      165331 NShFF=           0 NBatch=        1530 AvBLen=       108.1
 IPart= 12 NShTot=      159583 NShNF=      159583 NShFF=           0 NBatch=        1269 AvBLen=       125.8
 IPart= 16 NShTot=      187084 NShNF=      187084 NShFF=           0 NBatch=        1384 AvBLen=       135.2
 IPart=  5 NShTot=      183549 NShNF=      183549 NShFF=           0 NBatch=        1876 AvBLen=        97.8
 IPart=  6 NShTot=      154179 NShNF=      154179 NShFF=           0 NBatch=        1236 AvBLen=       124.7
 IPart=  3 NShTot=      158546 NShNF=      158546 NShFF=           0 NBatch=        1373 AvBLen=       115.5
 IPart= 19 NShTot=      192763 NShNF=      192763 NShFF=           0 NBatch=        1600 AvBLen=       120.5
 IPart=  8 NShTot=      188767 NShNF=      188767 NShFF=           0 NBatch=        1563 AvBLen=       120.8
 IPart= 27 NShTot=      171349 NShNF=      171349 NShFF=           0 NBatch=        1646 AvBLen=       104.1
 IPart=  4 NShTot=      180982 NShNF=      180982 NShFF=           0 NBatch=        1765 AvBLen=       102.5
 IPart=  1 NShTot=      126226 NShNF=      126226 NShFF=           0 NBatch=        1377 AvBLen=        91.7
 IPart= 20 NShTot=      175974 NShNF=      175974 NShFF=           0 NBatch=        1607 AvBLen=       109.5
 IPart= 23 NShTot=      184397 NShNF=      184397 NShFF=           0 NBatch=        1704 AvBLen=       108.2
 CoulSu:  NxtVal=        6336513.
 FoFCou: FMM=F IPFlag=           0 FMFlag=      100000 FMFlg1=         800
         NFxFlg=           0 DoJE=F BraDBF=F KetDBF=F FulRan=T
         wScrn=  0.000000 ICntrl=    2127 IOpCl=  1 I1Cent=           0 NGrid=           0
         NMat0=    1 NMatS0=      0 NMatT0=    1 NMatD0=    1 NMtDS0=    0 NMtDT0=    0
         CW=    0.222036    0.777964
         WU=    0.000000   12.500000
 Symmetry not used in FoFCou.
 FoFCou:  KetSym=F NOpSet=  1 NOpAb=1 NOp=  1.
 FoFCou:  CnvScl= 1.00D+00 Thresh= 1.00D-10 IAcrcy=      10.
 PrismS was handed   419072903 working-precision words and  3403 shell-pairs
 FoFCou: LinMIO=F DoNuc=F BraDBF=F KetDBF=F HaveP=T PDBF=F HaveZ=T HaveW=F
         NIJTC =      10 NIJTAt=       0 NIJTCD=       0 NIJTT =      10
         IJTBeg=       1 IJTEnd=      10 KLTBeg=       1 KLTEnd=      10
         IPTBeg=       1 IPTEnd=      10 IPTBCv=       1 IPTECv=      10
         IZTBeg=       1 IZTEnd=      10 IZTBCv=       1 IZTECv=      10
         IWTBeg=      11 IWTEnd=      10 IWTBCv=      11 IWTECv=      10
         INTBeg=       1 INTEnd=       0 IFTBCv=       1 IFTECv=      10
 NCel replicated for PrismC:     1
 CoulSu:  IncDef=  1024 NBBP=        5791906 NTPThr=   100 NPartT=   32 Incr=        1024 LDynOK=F.
 CoulSu:  NPrtUS=  32 ThrOK=T IAlg=1 NPAlg=1 LenDen=           0 LWGrdD=           0 DoCopy=F.
 Enter PrismC: JobTyp=21 DoJE=F Cont=F.
 Linear combination for Coulomb/exchange, wScrn=  0.000000
 CW=    0.222036    0.777964
 WU=    0.000000   12.500000
 PrismC:  IPart=     0 DynPar=T LinDyn=F Incr=        1024 UseFst=F UseS4=T IGathr=2.
 PrismC was handed    13042107 working-precision words and  3403 shell-pairs
 Enter PrismC: JobTyp=21 DoJE=F Cont=F.
 Enter PrismC: JobTyp=21 DoJE=F Cont=F.
 Enter PrismC: JobTyp=21 DoJE=F Cont=F.
 Linear combination for Coulomb/exchange, wScrn=  0.000000
 CW=    0.222036    0.777964
 WU=    0.000000   12.500000
 PrismC was handed    13042107 working-precision words and  3403 shell-pairs
 Enter PrismC: JobTyp=21 DoJE=F Cont=F.
 Linear combination for Coulomb/exchange, wScrn=  0.000000
 CW=    0.222036    0.777964
 WU=    0.000000   12.500000
 Enter PrismC: JobTyp=21 DoJE=F Cont=F.
 Linear combination for Coulomb/exchange, wScrn=  0.000000
 CW=    0.222036    0.777964
 WU=    0.000000   12.500000
 Enter PrismC: JobTyp=21 DoJE=F Cont=F.
 Linear combination for Coulomb/exchange, wScrn=  0.000000
 CW=    0.222036    0.777964
 WU=    0.000000   12.500000
 Enter PrismC: JobTyp=21 DoJE=F Cont=F.
 Linear combination for Coulomb/exchange, wScrn=  0.000000
 CW=    0.222036    0.777964
 WU=    0.000000   12.500000
 Enter PrismC: JobTyp=21 DoJE=F Cont=F.
 Linear combination for Coulomb/exchange, wScrn=  0.000000
 CW=    0.222036    0.777964
 WU=    0.000000   12.500000
 Linear combination for Coulomb/exchange, wScrn=  0.000000
 CW=    0.222036    0.777964
 WU=    0.000000   12.500000
 Enter PrismC: JobTyp=21 DoJE=F Cont=F.
 Linear combination for Coulomb/exchange, wScrn=  0.000000
 CW=    0.222036    0.777964
 WU=    0.000000   12.500000
 Enter PrismC: JobTyp=21 DoJE=F Cont=F.
 Linear combination for Coulomb/exchange, wScrn=  0.000000
 CW=    0.222036    0.777964
 WU=    0.000000   12.500000
 Linear combination for Coulomb/exchange, wScrn=  0.000000
 CW=    0.222036    0.777964
 WU=    0.000000   12.500000
 Enter PrismC: JobTyp=21 DoJE=F Cont=F.
 Linear combination for Coulomb/exchange, wScrn=  0.000000
 CW=    0.222036    0.777964
 WU=    0.000000   12.500000
 Enter PrismC: JobTyp=21 DoJE=F Cont=F.
 Linear combination for Coulomb/exchange, wScrn=  0.000000
 CW=    0.222036    0.777964
 WU=    0.000000   12.500000
 Enter PrismC: JobTyp=21 DoJE=F Cont=F.
 Linear combination for Coulomb/exchange, wScrn=  0.000000
 CW=    0.222036    0.777964
 WU=    0.000000   12.500000
 Enter PrismC: JobTyp=21 DoJE=F Cont=F.
 Linear combination for Coulomb/exchange, wScrn=  0.000000
 CW=    0.222036    0.777964
 WU=    0.000000   12.500000
 Enter PrismC: JobTyp=21 DoJE=F Cont=F.
 Linear combination for Coulomb/exchange, wScrn=  0.000000
 CW=    0.222036    0.777964
 WU=    0.000000   12.500000
 Enter PrismC: JobTyp=21 DoJE=F Cont=F.
 Linear combination for Coulomb/exchange, wScrn=  0.000000
 CW=    0.222036    0.777964
 WU=    0.000000   12.500000
 Enter PrismC: JobTyp=21 DoJE=F Cont=F.
 Linear combination for Coulomb/exchange, wScrn=  0.000000
 CW=    0.222036    0.777964
 WU=    0.000000   12.500000
 PrismC was handed    13042107 working-precision words and  3403 shell-pairs
 PrismC was handed    13042107 working-precision words and  3403 shell-pairs
 Enter PrismC: JobTyp=21 DoJE=F Cont=F.
 Linear combination for Coulomb/exchange, wScrn=  0.000000
 CW=    0.222036    0.777964
 WU=    0.000000   12.500000
 Enter PrismC: JobTyp=21 DoJE=F Cont=F.
 Linear combination for Coulomb/exchange, wScrn=  0.000000
 CW=    0.222036    0.777964
 WU=    0.000000   12.500000
 Enter PrismC: JobTyp=21 DoJE=F Cont=F.
 Linear combination for Coulomb/exchange, wScrn=  0.000000
 CW=    0.222036    0.777964
 WU=    0.000000   12.500000
 Enter PrismC: JobTyp=21 DoJE=F Cont=F.
 Linear combination for Coulomb/exchange, wScrn=  0.000000
 CW=    0.222036    0.777964
 WU=    0.000000   12.500000
 Enter PrismC: JobTyp=21 DoJE=F Cont=F.
 Linear combination for Coulomb/exchange, wScrn=  0.000000
 CW=    0.222036    0.777964
 WU=    0.000000   12.500000
 Enter PrismC: JobTyp=21 DoJE=F Cont=F.
 Linear combination for Coulomb/exchange, wScrn=  0.000000
 CW=    0.222036    0.777964
 WU=    0.000000   12.500000
 Enter PrismC: JobTyp=21 DoJE=F Cont=F.
 Linear combination for Coulomb/exchange, wScrn=  0.000000
 CW=    0.222036    0.777964
 WU=    0.000000   12.500000
 Enter PrismC: JobTyp=21 DoJE=F Cont=F.
 Linear combination for Coulomb/exchange, wScrn=  0.000000
 CW=    0.222036    0.777964
 WU=    0.000000   12.500000
 Enter PrismC: JobTyp=21 DoJE=F Cont=F.
 Linear combination for Coulomb/exchange, wScrn=  0.000000
 CW=    0.222036    0.777964
 WU=    0.000000   12.500000
 Enter PrismC: JobTyp=21 DoJE=F Cont=F.
 Linear combination for Coulomb/exchange, wScrn=  0.000000
 CW=    0.222036    0.777964
 WU=    0.000000   12.500000
 Enter PrismC: JobTyp=21 DoJE=F Cont=F.
 Linear combination for Coulomb/exchange, wScrn=  0.000000
 CW=    0.222036    0.777964
 WU=    0.000000   12.500000
 PrismC was handed    13042107 working-precision words and  3403 shell-pairs
 Enter PrismC: JobTyp=21 DoJE=F Cont=F.
 Linear combination for Coulomb/exchange, wScrn=  0.000000
 CW=    0.222036    0.777964
 WU=    0.000000   12.500000
 Enter PrismC: JobTyp=21 DoJE=F Cont=F.
 Linear combination for Coulomb/exchange, wScrn=  0.000000
 CW=    0.222036    0.777964
 WU=    0.000000   12.500000
 Enter PrismC: JobTyp=21 DoJE=F Cont=F.
 Linear combination for Coulomb/exchange, wScrn=  0.000000
 CW=    0.222036    0.777964
 WU=    0.000000   12.500000
 PrismC was handed    13042107 working-precision words and  3403 shell-pairs
 PrismC was handed    13042107 working-precision words and  3403 shell-pairs
 PrismC was handed    13042107 working-precision words and  3403 shell-pairs
 PrismC was handed    13042107 working-precision words and  3403 shell-pairs
 PrismC was handed    13042107 working-precision words and  3403 shell-pairs
 PrismC was handed    13042107 working-precision words and  3403 shell-pairs
 PrismC was handed    13042107 working-precision words and  3403 shell-pairs
 PrismC was handed    13042107 working-precision words and  3403 shell-pairs
 PrismC was handed    13042107 working-precision words and  3403 shell-pairs
 PrismC was handed    13042107 working-precision words and  3403 shell-pairs
 PrismC was handed    13042107 working-precision words and  3403 shell-pairs
 PrismC was handed    13042107 working-precision words and  3403 shell-pairs
 PrismC was handed    13042107 working-precision words and  3403 shell-pairs
 PrismC was handed    13042107 working-precision words and  3403 shell-pairs
 PrismC was handed    13042107 working-precision words and  3403 shell-pairs
 PrismC was handed    13042107 working-precision words and  3403 shell-pairs
 PrismC was handed    13042107 working-precision words and  3403 shell-pairs
 PrismC was handed    13042107 working-precision words and  3403 shell-pairs
 PrismC was handed    13042107 working-precision words and  3403 shell-pairs
 PrismC was handed    13042107 working-precision words and  3403 shell-pairs
 PrismC was handed    13042107 working-precision words and  3403 shell-pairs
 PrismC was handed    13042107 working-precision words and  3403 shell-pairs
 PrismC was handed    13042107 working-precision words and  3403 shell-pairs
 PrismC was handed    13042107 working-precision words and  3403 shell-pairs
 PrismC was handed    13042107 working-precision words and  3403 shell-pairs
 PrismC was handed    13042107 working-precision words and  3403 shell-pairs
 PrismC was handed    13042107 working-precision words and  3403 shell-pairs
 IPart= 22 NShTot=      180117 NShNF=      180117 NShFF=           0 NBatch=        2023 AvBLen=        89.0
 IPart=  4 NShTot=      164506 NShNF=      164506 NShFF=           0 NBatch=        1854 AvBLen=        88.7
 IPart= 16 NShTot=      185150 NShNF=      185150 NShFF=           0 NBatch=        1974 AvBLen=        93.8
 IPart= 11 NShTot=      181528 NShNF=      181528 NShFF=           0 NBatch=        2030 AvBLen=        89.4
 IPart= 17 NShTot=      166715 NShNF=      166715 NShFF=           0 NBatch=        1983 AvBLen=        84.1
 IPart=  7 NShTot=      171797 NShNF=      171797 NShFF=           0 NBatch=        1940 AvBLen=        88.6
 IPart= 27 NShTot=      187504 NShNF=      187504 NShFF=           0 NBatch=        1986 AvBLen=        94.4
 IPart= 20 NShTot=      179482 NShNF=      179482 NShFF=           0 NBatch=        1896 AvBLen=        94.7
 IPart= 19 NShTot=      184499 NShNF=      184499 NShFF=           0 NBatch=        1995 AvBLen=        92.5
 IPart=  2 NShTot=      179267 NShNF=      179267 NShFF=           0 NBatch=        1971 AvBLen=        91.0
 IPart= 14 NShTot=      171935 NShNF=      171935 NShFF=           0 NBatch=        1965 AvBLen=        87.5
 IPart=  9 NShTot=      179538 NShNF=      179538 NShFF=           0 NBatch=        1951 AvBLen=        92.0
 IPart=  6 NShTot=      166739 NShNF=      166739 NShFF=           0 NBatch=        1713 AvBLen=        97.3
 IPart= 21 NShTot=      168114 NShNF=      168114 NShFF=           0 NBatch=        1934 AvBLen=        86.9
 IPart= 29 NShTot=      184446 NShNF=      184446 NShFF=           0 NBatch=        2014 AvBLen=        91.6
 IPart= 13 NShTot=      185264 NShNF=      185264 NShFF=           0 NBatch=        1990 AvBLen=        93.1
 IPart=  1 NShTot=      191023 NShNF=      191023 NShFF=           0 NBatch=        1975 AvBLen=        96.7
 IPart=  3 NShTot=      182835 NShNF=      182835 NShFF=           0 NBatch=        1954 AvBLen=        93.6
 IPart=  5 NShTot=      187313 NShNF=      187313 NShFF=           0 NBatch=        1959 AvBLen=        95.6
 IPart= 30 NShTot=      159608 NShNF=      159608 NShFF=           0 NBatch=        1959 AvBLen=        81.5
 IPart= 24 NShTot=      164996 NShNF=      164996 NShFF=           0 NBatch=        1881 AvBLen=        87.7
 IPart=  0 NShTot=      156233 NShNF=      156233 NShFF=           0 NBatch=        1634 AvBLen=        95.6
 IPart= 25 NShTot=      189238 NShNF=      189238 NShFF=           0 NBatch=        2044 AvBLen=        92.6
 IPart= 10 NShTot=      183124 NShNF=      183124 NShFF=           0 NBatch=        1886 AvBLen=        97.1
 IPart= 15 NShTot=      170408 NShNF=      170408 NShFF=           0 NBatch=        1763 AvBLen=        96.7
 IPart= 28 NShTot=      175701 NShNF=      175701 NShFF=           0 NBatch=        2037 AvBLen=        86.3
 IPart=  8 NShTot=      135818 NShNF=      135818 NShFF=           0 NBatch=        1552 AvBLen=        87.5
 IPart= 23 NShTot=      172008 NShNF=      172008 NShFF=           0 NBatch=        1964 AvBLen=        87.6
 IPart= 31 NShTot=      168704 NShNF=      168704 NShFF=           0 NBatch=        1890 AvBLen=        89.3
 IPart= 12 NShTot=      188327 NShNF=      188327 NShFF=           0 NBatch=        1949 AvBLen=        96.6
 IPart= 18 NShTot=      185891 NShNF=      185891 NShFF=           0 NBatch=        1989 AvBLen=        93.5
 IPart= 26 NShTot=      178382 NShNF=      178382 NShFF=           0 NBatch=        2042 AvBLen=        87.4
 CoulSu:  NxtVal=        6336513.
 ReadGW:  IGet=0 IStart=           1 Next=           1 LGW=           0.
 Remaining memory in FofDFT      399.87 Mw
 CkSvGd:  ISavGI=        -1 IRadAn=       5 IRASav=       5 ISavGd=        -1.
 CalDSu:  NPrtUS=  32 ThrOK=T IAlg=1 NPAlg=2 DoDPD=T LenP=       33930 LenD1P=             0.
 IPart=  0 IRanGd=          0 ScrnBf=T ScrnGd=T RCrit=4.00D+00 DoMicB=T.
 IPart= 13         5160 of         5638 points in       6 batches and       26 microbatches, Max-NSigAt=       8 Max-NSgAt2=       8
 IPart= 18         5411 of         6696 points in       9 batches and       61 microbatches, Max-NSigAt=       8 Max-NSgAt2=       8
 IPart= 26         5086 of         5552 points in       6 batches and       31 microbatches, Max-NSigAt=       8 Max-NSgAt2=       8
 IPart= 19         4987 of         5486 points in       5 batches and       19 microbatches, Max-NSigAt=       8 Max-NSgAt2=       8
 IPart=  9         5237 of         5750 points in       6 batches and       23 microbatches, Max-NSigAt=       8 Max-NSgAt2=       8
 IPart= 22         6153 of         7530 points in       9 batches and       25 microbatches, Max-NSigAt=       8 Max-NSgAt2=       8
 IPart=  0         4894 of         5430 points in       7 batches and       31 microbatches, Max-NSigAt=       8 Max-NSgAt2=       8
 IPart= 17         5219 of         5722 points in       7 batches and       20 microbatches, Max-NSigAt=       8 Max-NSgAt2=       8
 IPart= 24         4988 of         5524 points in       6 batches and       28 microbatches, Max-NSigAt=       8 Max-NSgAt2=       8
 IPart=  4         4736 of         4948 points in       5 batches and       29 microbatches, Max-NSigAt=       8 Max-NSgAt2=       8
 IPart=  7         4940 of         5118 points in       5 batches and       29 microbatches, Max-NSigAt=       8 Max-NSgAt2=       8
 IPart= 28         4431 of         4734 points in       5 batches and       23 microbatches, Max-NSigAt=       8 Max-NSgAt2=       8
 IPart= 31         4807 of         5392 points in       6 batches and       17 microbatches, Max-NSigAt=       8 Max-NSgAt2=       8
 IPart=  5         5489 of         6292 points in       8 batches and       51 microbatches, Max-NSigAt=       8 Max-NSgAt2=       8
 IPart= 14         5070 of         5552 points in       6 batches and       27 microbatches, Max-NSigAt=       8 Max-NSgAt2=       8
 IPart= 12         5234 of         5722 points in       6 batches and       14 microbatches, Max-NSigAt=       8 Max-NSgAt2=       8
 IPart= 20         4914 of         5524 points in       6 batches and       24 microbatches, Max-NSigAt=       8 Max-NSgAt2=       8
 IPart= 11         5281 of         5694 points in       6 batches and       28 microbatches, Max-NSigAt=       8 Max-NSgAt2=       8
 IPart=  8         3999 of         4776 points in       6 batches and       37 microbatches, Max-NSigAt=       8 Max-NSgAt2=       8
 IPart=  3         4948 of         5420 points in       6 batches and       24 microbatches, Max-NSigAt=       8 Max-NSgAt2=       8
 IPart=  2         5325 of         5894 points in       7 batches and       34 microbatches, Max-NSigAt=       8 Max-NSgAt2=       8
 IPart= 10         5111 of         5324 points in       5 batches and       27 microbatches, Max-NSigAt=       8 Max-NSgAt2=       8
 IPart= 29         5025 of         5324 points in       5 batches and       23 microbatches, Max-NSigAt=       8 Max-NSgAt2=       8
 IPart= 21         5294 of         5928 points in       6 batches and       49 microbatches, Max-NSigAt=       8 Max-NSgAt2=       8
 IPart= 27         5156 of         5524 points in       5 batches and       18 microbatches, Max-NSigAt=       8 Max-NSgAt2=       8
 IPart= 30         5027 of         5352 points in       5 batches and       27 microbatches, Max-NSigAt=       8 Max-NSgAt2=       8
 IPart= 25         5468 of         5956 points in       6 batches and       41 microbatches, Max-NSigAt=       8 Max-NSgAt2=       8
 IPart= 23         5521 of         6312 points in       8 batches and       39 microbatches, Max-NSigAt=       8 Max-NSgAt2=       8
 IPart= 16         6229 of         7360 points in       9 batches and       45 microbatches, Max-NSigAt=       8 Max-NSgAt2=       8
 IPart=  6         5341 of         5882 points in       7 batches and       40 microbatches, Max-NSigAt=       8 Max-NSgAt2=       8
 IPart= 15         4869 of         5352 points in       5 batches and       27 microbatches, Max-NSigAt=       8 Max-NSgAt2=       8
 IPart=  1         6665 of         7900 points in      10 batches and       55 microbatches, Max-NSigAt=       8 Max-NSgAt2=       8
 Forces at end of L703
 I=    0 X=   2.307704149751D-02 Y=  -2.962213100047D-02 Z=   5.004360206765D-02
 I=    1 X=   2.983038417478D-02 Y=   6.567987178508D-02 Z=  -1.232825264458D-03
 I=    2 X=   3.033981703884D-06 Y=  -8.312598779305D-03 Z=   4.474206985687D-04
 I=    3 X=   4.249692784164D-04 Y=  -2.520403126687D-03 Z=   5.566827632804D-04
 I=    4 X=  -1.865000105090D-03 Y=  -4.318963853451D-02 Z=  -8.045920349892D-03
 I=    5 X=  -4.141405607964D-02 Y=  -5.491805203503D-02 Z=  -2.287695391168D-02
 I=    6 X=   6.662981662049D-04 Y=   5.453139941203D-04 Z=   1.483268102344D-03
 I=    7 X=   3.316893449301D-03 Y=   6.665915783190D-03 Z=   6.406583731310D-03
 I=    8 X=   9.037477134328D-03 Y=   3.604959091315D-02 Z=   2.326174423054D-02
 FrcOut:
 IF    =    45 IFX   =    69 IFXYZ =    93
 IFFX  =   117 IFFFX =   417 IFLen =    24
 IFFLen=   300 IFFFLn=     0 IEDerv=   417
 LEDerv=  1205 IFroze=  1904 ICStrt=108261
 FCEst1:  Generated internal coordinate force constants:
                1             2             3             4             5 
      1  0.755623D+00
      2  0.347515D-01  0.253669D+00
      3 -0.504273D-02  0.216859D-01  0.762379D+00
      4 -0.124558D+00 -0.142715D-01  0.712909D-02  0.846310D-01
      5 -0.143360D-01 -0.698641D-01  0.172668D-01  0.129793D-01  0.441301D-01
      6  0.000000D+00  0.000000D+00 -0.362127D+00  0.000000D+00  0.000000D+00
      7 -0.299557D+00 -0.734839D-02  0.100829D+00  0.193288D-01 -0.748004D-04
      8  0.752333D-02 -0.686490D-01 -0.213638D-01 -0.149727D-03  0.109554D-01
      9  0.108496D+00 -0.127421D-01 -0.187289D+00  0.335161D-01 -0.129704D-03
     10 -0.300793D+00 -0.479695D-03 -0.105492D+00  0.194177D-01  0.449051D-04
     11 -0.152298D-01 -0.627299D-01 -0.953427D-02  0.609862D-04  0.108403D-01
     12 -0.106056D+00 -0.909753D-03 -0.179507D+00 -0.336046D-01 -0.140710D-03
     13 -0.363459D-01 -0.103957D-01  0.284511D-02  0.109765D-02  0.142070D-02
     14 -0.104562D-01 -0.529363D-01 -0.964018D-02  0.141182D-02  0.392547D-02
     15  0.288667D-02 -0.961268D-02 -0.279504D-01 -0.702836D-02 -0.170014D-01
     16 -0.245538D-02  0.600960D-03  0.155985D-02 -0.208178D-03  0.860560D-04
     17 -0.148964D-01  0.392808D-02  0.840044D-02  0.207224D-03 -0.856619D-04
     18 -0.536902D-02  0.131383D-02  0.341176D-02 -0.456491D-03  0.188703D-03
     19  0.808386D-02 -0.436662D-02  0.386135D-02 -0.253270D-03  0.104696D-03
     20  0.119922D-01 -0.657069D-02  0.607834D-02 -0.212620D-04  0.878925D-05
     21  0.456810D-02 -0.262948D-02  0.279214D-02  0.474537D-03 -0.196163D-03
     22  0.196314D-05  0.150940D-02 -0.568961D-02  0.543977D-03 -0.224868D-03
     23  0.651434D-03  0.315300D-02 -0.128932D-01 -0.216826D-03  0.896311D-04
     24  0.517268D-03  0.289434D-02 -0.117098D-01 -0.302956D-04  0.125235D-04
                6             7             8             9            10 
      6  0.362127D+00
      7  0.000000D+00  0.292993D+00
      8  0.000000D+00  0.673255D-02  0.436073D-01
      9  0.000000D+00 -0.119878D+00  0.116742D-01  0.154258D+00
     10  0.000000D+00 -0.970095D-02 -0.932440D-04 -0.168214D-01  0.291434D+00
     11  0.000000D+00  0.242257D-04  0.108396D-01  0.420074D-04  0.373437D-03
     12  0.000000D+00  0.167883D-01  0.983747D-04  0.291109D-01  0.122339D+00
     13  0.000000D+00 -0.302310D-02 -0.140483D-01 -0.524205D-02 -0.309552D-03
     14  0.000000D+00  0.651257D-03  0.326005D-02  0.112928D-02  0.136502D-03
     15  0.000000D+00  0.225451D-02  0.959642D-02  0.390931D-02 -0.321762D-04
     16  0.000000D+00  0.102288D-03 -0.893629D-04  0.177367D-03  0.122048D-03
     17  0.000000D+00 -0.101820D-03  0.889536D-04 -0.176555D-03 -0.121489D-03
     18  0.000000D+00  0.224297D-03 -0.195955D-03  0.388930D-03  0.267627D-03
     19  0.000000D+00  0.124444D-03 -0.108719D-03  0.215786D-03  0.148485D-03
     20  0.000000D+00  0.104471D-04 -0.912700D-05  0.181153D-04  0.124653D-04
     21  0.000000D+00 -0.233164D-03  0.203701D-03 -0.404306D-03 -0.278207D-03
     22  0.000000D+00 -0.267283D-03  0.233509D-03 -0.463468D-03 -0.318917D-03
     23  0.000000D+00  0.106537D-03 -0.930754D-04  0.184736D-03  0.127119D-03
     24  0.000000D+00  0.148857D-04 -0.130048D-04  0.258118D-04  0.177614D-04
               11            12            13            14            15 
     11  0.493647D-01
     12  0.117131D-02  0.150401D+00
     13  0.147734D-01  0.449855D-03  0.726273D+00
     14 -0.831557D-02 -0.187906D-03 -0.939986D-01  0.536402D+00
     15  0.832062D-02  0.732962D-05 -0.988321D-01 -0.232562D+00  0.509096D+00
     16  0.562068D-05 -0.211249D-03 -0.311464D+00  0.114069D-01  0.104235D+00
     17 -0.559494D-05  0.210281D-03  0.269876D-01 -0.111109D+00  0.177034D-01
     18  0.123250D-04 -0.463226D-03  0.111025D+00  0.247843D-01 -0.133668D+00
     19  0.683816D-05 -0.257007D-03 -0.251679D+00  0.112552D+00 -0.548944D-01
     20  0.000000D+00 -0.215757D-04  0.961358D-01 -0.183640D+00  0.750530D-01
     21 -0.128122D-04  0.481538D-03 -0.555747D-01  0.836743D-01 -0.120461D+00
     22 -0.146871D-04  0.552002D-03 -0.124549D+00 -0.217037D-01  0.514114D-01
     23  0.585419D-05 -0.220025D-03 -0.208749D-01 -0.187587D+00  0.148502D+00
     24  0.000000D+00 -0.307425D-04  0.453290D-01  0.132802D+00 -0.230933D+00
               16            17            18            19            20 
     16  0.308640D+00
     17 -0.851549D-02  0.770598D-01
     18 -0.117232D+00 -0.184167D-01  0.105179D+00
     19 -0.635964D-02  0.197158D-01 -0.139571D-01  0.225783D+00
     20 -0.171731D-02  0.150338D-01 -0.377733D-02 -0.121358D+00  0.174535D+00
     21  0.985352D-02 -0.136273D-01  0.216101D-01  0.639326D-01 -0.817525D-01
     22  0.116233D-01 -0.232753D-01  0.254977D-01  0.241523D-01  0.149454D-01
     23 -0.177741D-02  0.150892D-01 -0.390911D-02 -0.654616D-02  0.641322D-03
     24  0.161788D-02  0.590653D-02  0.354112D-02  0.109878D-02  0.440197D-02
               21            22            23            24 
     21  0.905305D-01
     22 -0.227427D-01  0.888133D-01
     23  0.143403D-01  0.285302D-01  0.168701D+00
     24  0.545117D-02 -0.485653D-01 -0.146005D+00  0.233656D+00
 Quadrupole    = 1.03696671D+00-1.18906873D+00 1.52102019D-01
                -7.58143867D-02-4.04218728D-01-7.96702036D-01
 -------------------------------------------------------------------
 Center     Atomic                   Forces (Hartrees/Bohr)
 Number     Number              X              Y              Z
 -------------------------------------------------------------------
      1        6          -0.029830384   -0.065679872    0.001232825
      2        1          -0.000003034    0.008312599   -0.000447421
      3        1          -0.000424969    0.002520403   -0.000556683
      4        1           0.001865000    0.043189639    0.008045920
      5        6           0.041414056    0.054918052    0.022876954
      6        1          -0.000666298   -0.000545314   -0.001483268
      7        1          -0.003316893   -0.006665916   -0.006406584
      8        1          -0.009037477   -0.036049591   -0.023261744
 -------------------------------------------------------------------
 Cartesian Forces:  Max     0.065679872 RMS     0.024572317
 From PutF, contents of force:
   1   -0.5880799123D-01
   2    0.6194163175D-02
   3   -0.5164664641D-01
   4   -0.7174045477D-01
   5   -0.2212776284D-01
   6    0.7618199534D-01
   7   -0.9657410292D-05
   8   -0.5232830515D-03
   9   -0.5902321876D-02
  10   -0.2227392800D-03
  11    0.1035163752D-01
  12   -0.7611916644D-01
  13   -0.1214530584D-01
  14    0.1415131815D-02
  15   -0.5765843110D-02
  16   -0.9003102515D-04
  17   -0.4474206986D-03
  18   -0.1902615930D-01
 -----------------------------------------------------------------------------------------------
                       Internal Coordinate Forces (Hartree/Bohr or radian)
  Cent   Atom   N1       Length/X         N2         Alpha/Y        N3         Beta/Z          J
 -----------------------------------------------------------------------------------------------
      1  C 
      2  H        1  -0.000447(     1)
      3  H        1  -0.000090(     2)      2   0.001415(     8)
      4  H        1  -0.005766(     3)      2  -0.012145(     9)      3   0.076182(    14)     0
      5  C        1  -0.019026(     4)      2  -0.022128(    10)      3  -0.071740(    15)     0
      6  H        5  -0.000010(     5)      1  -0.051647(    11)      2   0.006194(    16)     0
      7  H        5  -0.000523(     6)      6  -0.000223(    12)      1  -0.058808(    17)     0
      8  H        5  -0.005902(     7)      6   0.010352(    13)      7  -0.076119(    18)     0
 -----------------------------------------------------------------------------------------------
 Internal  Forces:  Max     0.076181995 RMS     0.036579863
 Force constants in Cartesian coordinates: 
                1             2             3             4             5 
      1  0.755623D+00
      2  0.347515D-01  0.253669D+00
      3 -0.504273D-02  0.216859D-01  0.762379D+00
      4 -0.124558D+00 -0.142715D-01  0.712909D-02  0.846310D-01
      5 -0.143360D-01 -0.698641D-01  0.172668D-01  0.129793D-01  0.441301D-01
      6  0.000000D+00  0.000000D+00 -0.362127D+00  0.000000D+00  0.000000D+00
      7 -0.299557D+00 -0.734839D-02  0.100829D+00  0.193288D-01 -0.748004D-04
      8  0.752333D-02 -0.686490D-01 -0.213638D-01 -0.149727D-03  0.109554D-01
      9  0.108496D+00 -0.127421D-01 -0.187289D+00  0.335161D-01 -0.129704D-03
     10 -0.300793D+00 -0.479695D-03 -0.105492D+00  0.194177D-01  0.449051D-04
     11 -0.152298D-01 -0.627299D-01 -0.953427D-02  0.609862D-04  0.108403D-01
     12 -0.106056D+00 -0.909753D-03 -0.179507D+00 -0.336046D-01 -0.140710D-03
     13 -0.363459D-01 -0.103957D-01  0.284511D-02  0.109765D-02  0.142070D-02
     14 -0.104562D-01 -0.529363D-01 -0.964018D-02  0.141182D-02  0.392547D-02
     15  0.288667D-02 -0.961268D-02 -0.279504D-01 -0.702836D-02 -0.170014D-01
     16 -0.245538D-02  0.600960D-03  0.155985D-02 -0.208178D-03  0.860560D-04
     17 -0.148964D-01  0.392808D-02  0.840044D-02  0.207224D-03 -0.856619D-04
     18 -0.536902D-02  0.131383D-02  0.341176D-02 -0.456491D-03  0.188703D-03
     19  0.808386D-02 -0.436662D-02  0.386135D-02 -0.253270D-03  0.104696D-03
     20  0.119922D-01 -0.657069D-02  0.607834D-02 -0.212620D-04  0.878925D-05
     21  0.456810D-02 -0.262948D-02  0.279214D-02  0.474537D-03 -0.196163D-03
     22  0.196314D-05  0.150940D-02 -0.568961D-02  0.543977D-03 -0.224868D-03
     23  0.651434D-03  0.315300D-02 -0.128932D-01 -0.216826D-03  0.896311D-04
     24  0.517268D-03  0.289434D-02 -0.117098D-01 -0.302956D-04  0.125235D-04
                6             7             8             9            10 
      6  0.362127D+00
      7  0.000000D+00  0.292993D+00
      8  0.000000D+00  0.673255D-02  0.436073D-01
      9  0.000000D+00 -0.119878D+00  0.116742D-01  0.154258D+00
     10  0.000000D+00 -0.970095D-02 -0.932440D-04 -0.168214D-01  0.291434D+00
     11  0.000000D+00  0.242257D-04  0.108396D-01  0.420074D-04  0.373437D-03
     12  0.000000D+00  0.167883D-01  0.983747D-04  0.291109D-01  0.122339D+00
     13  0.000000D+00 -0.302310D-02 -0.140483D-01 -0.524205D-02 -0.309552D-03
     14  0.000000D+00  0.651257D-03  0.326005D-02  0.112928D-02  0.136502D-03
     15  0.000000D+00  0.225451D-02  0.959642D-02  0.390931D-02 -0.321762D-04
     16  0.000000D+00  0.102288D-03 -0.893629D-04  0.177367D-03  0.122048D-03
     17  0.000000D+00 -0.101820D-03  0.889536D-04 -0.176555D-03 -0.121489D-03
     18  0.000000D+00  0.224297D-03 -0.195955D-03  0.388930D-03  0.267627D-03
     19  0.000000D+00  0.124444D-03 -0.108719D-03  0.215786D-03  0.148485D-03
     20  0.000000D+00  0.104471D-04 -0.912700D-05  0.181153D-04  0.124653D-04
     21  0.000000D+00 -0.233164D-03  0.203701D-03 -0.404306D-03 -0.278207D-03
     22  0.000000D+00 -0.267283D-03  0.233509D-03 -0.463468D-03 -0.318917D-03
     23  0.000000D+00  0.106537D-03 -0.930754D-04  0.184736D-03  0.127119D-03
     24  0.000000D+00  0.148857D-04 -0.130048D-04  0.258118D-04  0.177614D-04
               11            12            13            14            15 
     11  0.493647D-01
     12  0.117131D-02  0.150401D+00
     13  0.147734D-01  0.449855D-03  0.726273D+00
     14 -0.831557D-02 -0.187906D-03 -0.939986D-01  0.536402D+00
     15  0.832062D-02  0.732962D-05 -0.988321D-01 -0.232562D+00  0.509096D+00
     16  0.562068D-05 -0.211249D-03 -0.311464D+00  0.114069D-01  0.104235D+00
     17 -0.559494D-05  0.210281D-03  0.269876D-01 -0.111109D+00  0.177034D-01
     18  0.123250D-04 -0.463226D-03  0.111025D+00  0.247843D-01 -0.133668D+00
     19  0.683816D-05 -0.257007D-03 -0.251679D+00  0.112552D+00 -0.548944D-01
     20  0.000000D+00 -0.215757D-04  0.961358D-01 -0.183640D+00  0.750530D-01
     21 -0.128122D-04  0.481538D-03 -0.555747D-01  0.836743D-01 -0.120461D+00
     22 -0.146871D-04  0.552002D-03 -0.124549D+00 -0.217037D-01  0.514114D-01
     23  0.585419D-05 -0.220025D-03 -0.208749D-01 -0.187587D+00  0.148502D+00
     24  0.000000D+00 -0.307425D-04  0.453290D-01  0.132802D+00 -0.230933D+00
               16            17            18            19            20 
     16  0.308640D+00
     17 -0.851549D-02  0.770598D-01
[...]
      1      1  C 
      2      2  H        1   1.078200(     1)
      3      3  H        1   1.078200(     2)      2  119.972(     8)
      4      4  H        1   1.078200(     3)      2  120.021(     9)      3  179.808(    14)      0
      5      5  C        1   2.200000(     4)      2   89.940(    10)      3   89.906(    15)      0
      6      6  H        5   1.078200(     5)      1   90.051(    11)      2   59.981(    16)      0
      7      7  H        5   1.078200(     6)      6  119.972(    12)      1   90.103(    17)      0
      8      8  H        5   1.078200(     7)      6  120.021(    13)      7  179.808(    18)      0
 ---------------------------------------------------------------------------------------------------
                         Z-Matrix orientation:                         
 ---------------------------------------------------------------------
 Center     Atomic      Atomic             Coordinates (Angstroms)
 Number     Number       Type             X           Y           Z
 ---------------------------------------------------------------------
      1          6           0        0.000000    0.000000    0.000000
      2          1           0        0.000000    0.000000    1.078200
      3          1           0        0.934011    0.000000   -0.538645
      4          1           0       -0.933548   -0.003135   -0.539437
      5          6           0        0.003612   -2.199996    0.002289
      6          1           0       -0.929955   -2.201935    0.541699
      7          1           0        0.937277   -2.199091    0.541532
      8          1           0        0.003649   -2.202097   -1.075909
 ---------------------------------------------------------------------
                    Distance matrix (angstroms):
                    1          2          3          4          5
     1  C    0.000000
     2  H    1.078200   0.000000
     3  H    1.078200   1.867235   0.000000
     4  H    1.078200   1.867692   1.867562   0.000000
     5  C    2.200000   2.448996   2.449129   2.449068   0.000000
     6  H    2.450871   2.449728   3.080589   2.450222   1.078200
     7  H    2.451071   2.450001   2.450060   3.080699   1.078200
     8  H    2.450883   3.080492   2.450196   2.449811   1.078200
                    6          7          8
     6  H    0.000000
     7  H    1.867235   0.000000
     8  H    1.867692   1.867562   0.000000
 Symmetry turned off by external request.
 Stoichiometry    C2H6
 Framework group  C1[X(C2H6)]
 Deg. of freedom    18
 Full point group                 C1      NOp   1
 Rotational constants (GHZ):     71.8923302     12.6753101     12.6749843

 **********************************************************************

            Population analysis using the SCF density.

 **********************************************************************

 Alpha  occ. eigenvalues --  -10.29539 -10.29534  -0.80043  -0.72934  -0.52068
 Alpha  occ. eigenvalues --   -0.52063  -0.47748  -0.47743  -0.30748
 Alpha virt. eigenvalues --    0.03283   0.03332   0.04562   0.04562   0.06759
 Alpha virt. eigenvalues --    0.07076   0.07076   0.10314   0.11605   0.11606
 Alpha virt. eigenvalues --    0.13001   0.14159   0.14160   0.14531   0.17058
 Alpha virt. eigenvalues --    0.19338   0.19339   0.23753   0.23755   0.25678
 Alpha virt. eigenvalues --    0.25680   0.27621   0.29273   0.30532   0.30533
 Alpha virt. eigenvalues --    0.31579   0.35369   0.35370   0.35459   0.36583
 Alpha virt. eigenvalues --    0.38937   0.38938   0.39330   0.39665   0.39763
 Alpha virt. eigenvalues --    0.40582   0.40583   0.41232   0.41233   0.42819
 Alpha virt. eigenvalues --    0.42822   0.43113   0.46526   0.46527   0.47634
 Alpha virt. eigenvalues --    0.47635   0.50029   0.51583   0.51583   0.63121
 Alpha virt. eigenvalues --    0.67400   0.70352   0.70353   0.70371   0.72286
 Alpha virt. eigenvalues --    0.72289   0.76345   0.77502   0.77506   0.80014
 Alpha virt. eigenvalues --    0.82079   0.82083   0.82513   0.82515   0.84827
 Alpha virt. eigenvalues --    0.84829   0.84967   0.86485   0.86563   0.89777
 Alpha virt. eigenvalues --    0.89778   0.93486   0.98719   0.98720   1.00181
 Alpha virt. eigenvalues --    1.03041   1.04832   1.04833   1.06256   1.06256
 Alpha virt. eigenvalues --    1.10809   1.10810   1.11355   1.14611   1.16957
 Alpha virt. eigenvalues --    1.16958   1.18290   1.18294   1.19837   1.19838
 Alpha virt. eigenvalues --    1.24262   1.28958   1.32317   1.32319   1.33480
 Alpha virt. eigenvalues --    1.33482   1.42207   1.42630   1.42636   1.44795
 Alpha virt. eigenvalues --    1.50650   1.52450   1.52458   1.53467   1.55671
 Alpha virt. eigenvalues --    1.55672   1.56032   1.56423   1.57812   1.57822
 Alpha virt. eigenvalues --    1.60322   1.60916   1.60919   1.64770   1.72441
 Alpha virt. eigenvalues --    1.72444   1.74585   1.82001   1.82006   1.82235
 Alpha virt. eigenvalues --    1.82239   1.87389   1.91467   1.99062   1.99065
 Alpha virt. eigenvalues --    1.99654   2.06164   2.06172   2.11301   2.11308
 Alpha virt. eigenvalues --    2.14360   2.14363   2.17100   2.21742   2.44144
 Alpha virt. eigenvalues --    2.89815   2.89825   2.90322   2.93624   2.99840
 Alpha virt. eigenvalues --    2.99842   3.10176   3.12453   3.14427   3.14435
 Alpha virt. eigenvalues --    3.32353   3.32357   3.34578   3.37918   3.37922
 Alpha virt. eigenvalues --    3.39399   3.39405   3.43978   3.44477   3.46025
 Alpha virt. eigenvalues --    3.53892   3.53894   3.61460   3.61462   3.68654
 Alpha virt. eigenvalues --    3.68657   3.75537   3.75539   3.76293   3.80222
 Alpha virt. eigenvalues --    3.80225   3.80763   3.86337   3.88823   3.91278
 Alpha virt. eigenvalues --    3.91280   3.97627   4.01215   4.01219   4.15258
 Alpha virt. eigenvalues --    4.20868   4.20883   4.21050   4.21068   4.27474
 Alpha virt. eigenvalues --    4.29804   4.29807   4.39513   4.60202   4.60206
 Alpha virt. eigenvalues --    4.64510   4.64511   4.68204   4.70935   4.70943
 Alpha virt. eigenvalues --    4.76101   4.76105   4.76519   4.84269   4.92316
 Alpha virt. eigenvalues --    4.92860   4.93311   5.05825   5.05849   5.08510
 Alpha virt. eigenvalues --    5.08533   5.15152   5.15160   5.18498   5.18504
 Alpha virt. eigenvalues --    5.34404   5.34411   5.35013   5.35017   5.45787
 Alpha virt. eigenvalues --    5.49374   6.13342   6.17690   6.26208   6.26231
 Alpha virt. eigenvalues --    6.32215   6.32234   6.39178   6.50448  16.08853
 Alpha virt. eigenvalues --   17.00993
  Beta  occ. eigenvalues --  -10.29539 -10.29534  -0.80043  -0.72934  -0.52068
  Beta  occ. eigenvalues --   -0.52063  -0.47748  -0.47743  -0.30748
  Beta virt. eigenvalues --    0.03283   0.03332   0.04562   0.04562   0.06759
  Beta virt. eigenvalues --    0.07076   0.07076   0.10314   0.11605   0.11606
  Beta virt. eigenvalues --    0.13001   0.14159   0.14160   0.14531   0.17058
  Beta virt. eigenvalues --    0.19338   0.19339   0.23753   0.23755   0.25678
  Beta virt. eigenvalues --    0.25680   0.27621   0.29273   0.30532   0.30533
  Beta virt. eigenvalues --    0.31579   0.35369   0.35370   0.35459   0.36583
  Beta virt. eigenvalues --    0.38937   0.38938   0.39330   0.39665   0.39763
  Beta virt. eigenvalues --    0.40582   0.40583   0.41232   0.41233   0.42819
  Beta virt. eigenvalues --    0.42822   0.43113   0.46526   0.46527   0.47634
  Beta virt. eigenvalues --    0.47635   0.50029   0.51583   0.51583   0.63121
  Beta virt. eigenvalues --    0.67400   0.70352   0.70353   0.70371   0.72286
  Beta virt. eigenvalues --    0.72289   0.76345   0.77502   0.77506   0.80014
  Beta virt. eigenvalues --    0.82079   0.82083   0.82513   0.82515   0.84827
  Beta virt. eigenvalues --    0.84829   0.84967   0.86485   0.86563   0.89777
  Beta virt. eigenvalues --    0.89778   0.93486   0.98719   0.98720   1.00181
  Beta virt. eigenvalues --    1.03041   1.04832   1.04833   1.06256   1.06256
  Beta virt. eigenvalues --    1.10809   1.10810   1.11355   1.14611   1.16957
  Beta virt. eigenvalues --    1.16958   1.18290   1.18294   1.19837   1.19838
  Beta virt. eigenvalues --    1.24262   1.28958   1.32317   1.32319   1.33480
  Beta virt. eigenvalues --    1.33482   1.42207   1.42630   1.42636   1.44795
  Beta virt. eigenvalues --    1.50650   1.52450   1.52458   1.53467   1.55671
  Beta virt. eigenvalues --    1.55672   1.56032   1.56423   1.57812   1.57822
  Beta virt. eigenvalues --    1.60322   1.60916   1.60919   1.64770   1.72441
  Beta virt. eigenvalues --    1.72444   1.74585   1.82001   1.82006   1.82235
  Beta virt. eigenvalues --    1.82239   1.87389   1.91467   1.99062   1.99065
  Beta virt. eigenvalues --    1.99654   2.06164   2.06172   2.11301   2.11308
  Beta virt. eigenvalues --    2.14360   2.14363   2.17100   2.21742   2.44144
  Beta virt. eigenvalues --    2.89815   2.89825   2.90322   2.93624   2.99840
  Beta virt. eigenvalues --    2.99842   3.10176   3.12453   3.14427   3.14435
  Beta virt. eigenvalues --    3.32353   3.32357   3.34578   3.37918   3.37922
  Beta virt. eigenvalues --    3.39399   3.39405   3.43978   3.44477   3.46025
  Beta virt. eigenvalues --    3.53892   3.53894   3.61460   3.61462   3.68654
  Beta virt. eigenvalues --    3.68657   3.75537   3.75539   3.76293   3.80222
  Beta virt. eigenvalues --    3.80225   3.80763   3.86337   3.88823   3.91278
  Beta virt. eigenvalues --    3.91280   3.97627   4.01215   4.01219   4.15258
  Beta virt. eigenvalues --    4.20868   4.20883   4.21050   4.21068   4.27474
  Beta virt. eigenvalues --    4.29804   4.29807   4.39513   4.60202   4.60206
  Beta virt. eigenvalues --    4.64510   4.64511   4.68204   4.70935   4.70943
  Beta virt. eigenvalues --    4.76101   4.76105   4.76519   4.84269   4.92316
  Beta virt. eigenvalues --    4.92860   4.93311   5.05825   5.05849   5.08510
  Beta virt. eigenvalues --    5.08533   5.15152   5.15160   5.18498   5.18504
  Beta virt. eigenvalues --    5.34404   5.34411   5.35013   5.35017   5.45787
  Beta virt. eigenvalues --    5.49374   6.13342   6.17690   6.26208   6.26231
  Beta virt. eigenvalues --    6.32215   6.32234   6.39178   6.50448  16.08853
  Beta virt. eigenvalues --   17.00993
          Condensed to atoms (all electrons):
               1          2          3          4          5          6
     1  C    5.923623   0.338906   0.338886   0.338853   0.081100   0.014864
     2  H    0.338906   0.266495   0.010641   0.010634   0.015179   0.001504
     3  H    0.338886   0.010641   0.266480   0.010637   0.015167  -0.000207
     4  H    0.338853   0.010634   0.010637   0.266479   0.015185   0.001505
     5  C    0.081100   0.015179   0.015167   0.015185   5.922798   0.339109
     6  H    0.014864   0.001504  -0.000207   0.001505   0.339109   0.266461
     7  H    0.014857   0.001503   0.001502  -0.000206   0.339129   0.010608
     8  H    0.014878  -0.000205   0.001504   0.001505   0.339122   0.010599
               7          8
     1  C    0.014857   0.014878
     2  H    0.001503  -0.000205
     3  H    0.001502   0.001504
     4  H   -0.000206   0.001505
     5  C    0.339129   0.339122
     6  H    0.010608   0.010599
     7  H    0.266468   0.010600
     8  H    0.010600   0.266475
          Atomic-Atomic Spin Densities.
               1          2          3          4          5          6
     1  C    0.000000   0.000000   0.000000   0.000000   0.000000   0.000000
     2  H    0.000000  -0.000000   0.000000   0.000000  -0.000000  -0.000000
     3  H    0.000000   0.000000  -0.000000   0.000000  -0.000000   0.000000
     4  H    0.000000   0.000000   0.000000  -0.000000  -0.000000   0.000000
     5  C    0.000000  -0.000000  -0.000000  -0.000000  -0.000000  -0.000000
     6  H    0.000000  -0.000000   0.000000   0.000000  -0.000000   0.000000
     7  H    0.000000  -0.000000   0.000000   0.000000  -0.000000  -0.000000
     8  H    0.000000   0.000000   0.000000   0.000000  -0.000000  -0.000000
               7          8
     1  C    0.000000   0.000000
     2  H   -0.000000   0.000000
     3  H    0.000000   0.000000
     4  H    0.000000   0.000000
     5  C   -0.000000  -0.000000
     6  H   -0.000000  -0.000000
     7  H    0.000000  -0.000000
     8  H   -0.000000   0.000000
 Mulliken charges and spin densities:
               1          2
     1  C   -1.065967   0.000000
     2  H    0.355344   0.000000
     3  H    0.355388  -0.000000
     4  H    0.355409  -0.000000
     5  C   -1.066790  -0.000000
     6  H    0.355557   0.000000
     7  H    0.355537   0.000000
     8  H    0.355522   0.000000
 Sum of Mulliken charges =  -0.00000  -0.00000
 Mulliken charges and spin densities with hydrogens summed into heavy atoms:
               1          2
     1  C    0.000174   0.000000
     5  C   -0.000174  -0.000000
 Electronic spatial extent (au):  <R**2>=            215.6274
 Charge=             -0.0000 electrons
 Dipole moment (field-independent basis, Debye):
    X=              0.0001    Y=             -0.0046    Z=              0.0001  Tot=              0.0046
 Quadrupole moment (field-independent basis, Debye-Ang):
   XX=            -14.3178   YY=            -18.5952   ZZ=            -14.3165
   XY=              0.0067   XZ=              0.0006   YZ=              0.0039
 Traceless Quadrupole moment (field-independent basis, Debye-Ang):
   XX=              1.4254   YY=             -2.8521   ZZ=              1.4267
   XY=              0.0067   XZ=              0.0006   YZ=              0.0039
 Octapole moment (field-independent basis, Debye-Ang**2):
  XXX=             -0.0778  YYY=             61.3754  ZZZ=             -0.0502  XYY=             -0.0480
  XXY=             15.7505  XXZ=             -0.0170  XZZ=             -0.0272  YZZ=             15.7468
  YYZ=             -0.0303  XYZ=              0.0004
 Hexadecapole moment (field-independent basis, Debye-Ang**3):
 XXXX=            -29.4307 YYYY=           -290.7446 ZZZZ=            -29.4383 XXXY=              0.1750
 XXXZ=              0.0089 YYYX=              0.2503 YYYZ=              0.1602 ZZZX=             -0.0030
 ZZZY=              2.0198 XXYY=            -45.3231 XXZZ=             -9.8058 YYZZ=            -45.3081
 XXYZ=             -1.8696 YYXZ=             -0.0072 ZZXY=              0.0588
 N-N= 3.761262079956D+01 E-N=-2.589679653338D+02  KE= 7.897835562319D+01
                          Isotropic Fermi Contact Couplings
        Atom                 a.u.       MegaHertz       Gauss      10(-4) cm-1
     1  C(13)              0.00000       0.00000       0.00000       0.00000
     2  H(1)              -0.00000      -0.00001      -0.00000      -0.00000
     3  H(1)              -0.00000      -0.00001      -0.00000      -0.00000
     4  H(1)              -0.00000      -0.00001      -0.00000      -0.00000
     5  C(13)             -0.00000      -0.00000      -0.00000      -0.00000
     6  H(1)               0.00000       0.00001       0.00000       0.00000
     7  H(1)               0.00000       0.00001       0.00000       0.00000
     8  H(1)               0.00000       0.00001       0.00000       0.00000
 --------------------------------------------------------
       Center         ----  Spin Dipole Couplings  ----
                      3XX-RR        3YY-RR        3ZZ-RR
 --------------------------------------------------------
     1   Atom       -0.000000      0.000000     -0.000000
     2   Atom       -0.000000     -0.000000      0.000000
     3   Atom        0.000000     -0.000000     -0.000000
     4   Atom        0.000000     -0.000000     -0.000000
     5   Atom        0.000000     -0.000000      0.000000
     6   Atom       -0.000000      0.000000      0.000000
     7   Atom       -0.000000      0.000000      0.000000
     8   Atom        0.000000      0.000000     -0.000000
 --------------------------------------------------------
                        XY            XZ            YZ
 --------------------------------------------------------
     1   Atom       -0.000000      0.000000     -0.000000
     2   Atom       -0.000000      0.000000     -0.000000
     3   Atom       -0.000000     -0.000000      0.000000
     4   Atom        0.000000      0.000000      0.000000
     5   Atom        0.000000      0.000000      0.000000
     6   Atom        0.000000      0.000000     -0.000000
     7   Atom       -0.000000     -0.000000     -0.000000
     8   Atom        0.000000     -0.000000      0.000000
 --------------------------------------------------------


 ---------------------------------------------------------------------------------
              Anisotropic Spin Dipole Couplings in Principal Axis System
 ---------------------------------------------------------------------------------

       Atom             a.u.   MegaHertz   Gauss  10(-4) cm-1        Axes

              Baa    -0.0000    -0.000    -0.000    -0.000  0.9566  0.0013 -0.2915
     1 C(13)  Bbb    -0.0000    -0.000    -0.000    -0.000  0.2915  0.0012  0.9566
              Bcc     0.0000     0.000     0.000     0.000 -0.0016  1.0000 -0.0008
 
              Baa    -0.0000    -0.000    -0.000    -0.000  1.0000  0.0016  0.0000
     2 H(1)   Bbb    -0.0000    -0.000    -0.000    -0.000 -0.0015  0.9895  0.1444
              Bcc     0.0000     0.000     0.000     0.000  0.0002 -0.1444  0.9895
 
              Baa    -0.0000    -0.000    -0.000    -0.000  0.4995  0.0014  0.8663
     3 H(1)   Bbb    -0.0000    -0.000    -0.000    -0.000  0.1241  0.9896 -0.0732
              Bcc     0.0000     0.000     0.000     0.000  0.8574 -0.1440 -0.4942
 
              Baa    -0.0000    -0.000    -0.000    -0.000 -0.5003 -0.0002  0.8659
     4 H(1)   Bbb    -0.0000    -0.000    -0.000    -0.000 -0.1270  0.9892 -0.0732
              Bcc     0.0000     0.000     0.000     0.000  0.8565  0.1466  0.4949
 
              Baa    -0.0000    -0.000    -0.000    -0.000 -0.0016  1.0000 -0.0009
     5 C(13)  Bbb     0.0000     0.000     0.000     0.000 -0.0407  0.0008  0.9992
              Bcc     0.0000     0.000     0.000     0.000  0.9992  0.0016  0.0407
 
              Baa    -0.0000    -0.000    -0.000    -0.000  0.8565 -0.1482 -0.4945
     6 H(1)   Bbb     0.0000     0.000     0.000     0.000  0.1275  0.9890 -0.0755
              Bcc     0.0000     0.000     0.000     0.000  0.5002  0.0016  0.8659
 
              Baa    -0.0000    -0.000    -0.000    -0.000  0.8560  0.1512  0.4943
     7 H(1)   Bbb     0.0000     0.000     0.000     0.000 -0.1310  0.9885 -0.0756
              Bcc     0.0000     0.000     0.000     0.000 -0.5001 -0.0000  0.8660
 
              Baa    -0.0000    -0.000    -0.000    -0.000  0.0002 -0.1484  0.9889
     8 H(1)   Bbb     0.0000     0.000     0.000     0.000 -0.0016  0.9889  0.1484
              Bcc     0.0000     0.000     0.000     0.000  1.0000  0.0016  0.0000
 

 ---------------------------------------------------------------------------------


 Test job not archived.
 1\1\GINC-NODE-6-7\POpt\UwB97XD\Aug-CC-pVTZ\C2H6\CAVALLOTTI\27-May-2023
 \1\\# uwb97xd/aug-cc-pvtz opt=(noeig,intern,maxcyc=50) # int=ultrafine
  nosym iop(7/33=1) guess=(mix,always)\\geom 0\\0,1\C\H,1,R1\H,1,R2,2,A
 2\H,1,R3,2,A3,3,D3,0\C,1,RTS,2,AABS1,3,BABS1,0\H,5,R21,1,AABS2,2,BABS2
 ,0\H,5,R22,6,A22,1,BABS3,0\H,5,R23,6,A23,7,D23,0\\BABS3=90.10258037\BA
 BS2=59.98097343\AABS2=90.05139275\BABS1=89.9059258\AABS1=89.94039847\D
 3=179.8076\R21=1.0782\R22=1.0782\R23=1.0782\A22=119.9721\A23=120.0207\
 D23=179.8076\A3=120.0207\A2=119.9721\R3=1.0782\R2=1.0782\R1=1.0782\RTS
 =2.2\\Version=EM64L-G09RevD.01\HF=-79.7253179\S2=0.\S2-1=0.\S2A=0.\RMS
 D=3.119e-09\RMSF=2.727e-02\Dipole=0.0000526,-0.0018107,0.0000396\Quadr
 upole=1.059746,-2.1204352,1.0606892,0.0050015,0.0004472,0.002883\PG=C0
 1 [X(C2H6)]\\@


 ON A TOMBSTONE, "HERE LIES LESTER MOORE,
 FOUR SLUGS FROM A 44, NO LES, NO MORE".
 Job cpu time:       0 days  2 hours 44 minutes 32.1 seconds.
 File lengths (MBytes):  RWF=    106 Int=      0 D2E=      0 Chk=      7 Scr=      1
 Normal termination of Gaussian 09 at Sat May 27 09:29:44 2023.
