 Entering Gaussian System, Link 0=g09
 Input=geom.com
 Output=geom.log
 Initial command:
 /software/cinetica/g09d1/g09d01/d01/build-node-6-2-59348/src/main/l1.exe "/scratch/adl/138188/Gau-14814.inp" -scrdir="/scratch/adl/138188/"
 Entering Link 1 = /software/cinetica/g09d1/g09d01/d01/build-node-6-2-59348/src/main/l1.exe PID=     14815.
  
 Copyright (c) 1988,1990,1992,1993,1995,1998,2003,2009,2013,
            Gaussian, Inc.  All Rights Reserved.
  
 This is part of the Gaussian(R) 09 program.  It is based on
 the Gaussian(R) 03 system (copyright 2003, Gaussian, Inc.),
 the Gaussian(R) 98 system (copyright 1998, Gaussian, Inc.),
 the Gaussian(R) 94 system (copyright 1995, Gaussian, Inc.),
 the Gaussian 92(TM) system (copyright 1992, Gaussian, Inc.),
 the Gaussian 90(TM) system (copyright 1990, Gaussian, Inc.),
 the Gaussian 88(TM) system (copyright 1988, Gaussian, Inc.),
 the Gaussian 86(TM) system (copyright 1986, Carnegie Mellon
 University), and the Gaussian 82(TM) system (copyright 1983,
 Carnegie Mellon University). Gaussian is a federally registered
 trademark of Gaussian, Inc.
  
 This software contains proprietary and confidential information,
 including trade secrets, belonging to Gaussian, Inc.
  
 This software is provided under written license and may be
 used, copied, transmitted, or stored only in accord with that
 written license.
  
 The following legend is applicable only to US Government
 contracts under FAR:
  
                    RESTRICTED RIGHTS LEGEND
  
 Use, reproduction and disclosure by the US Government is
 subject to restrictions as set forth in subparagraphs (a)
 and (c) of the Commercial Computer Software - Restricted
 Rights clause in FAR 52.227-19.
  
 Gaussian, Inc.
 340 Quinnipiac St., Bldg. 40, Wallingford CT 06492
  
  
 ---------------------------------------------------------------
 Warning -- This program may not be used in any manner that
 competes with the business of Gaussian, Inc. or will provide
 assistance to any competitor of Gaussian, Inc.  The licensee
 of this program is prohibited from giving any competitor of
 Gaussian, Inc. access to this program.  By using this program,
 the user acknowledges that Gaussian, Inc. is engaged in the
 business of creating and licensing software in the field of
 computational chemistry and represents and warrants to the
 licensee that it is not a competitor of Gaussian, Inc. and that
 it will not use this program in any manner prohibited above.
 ---------------------------------------------------------------
  

 Cite this work as:
 Gaussian 09, Revision D.01,
 M. J. Frisch, G. W. Trucks, H. B. Schlegel, G. E. Scuseria, 
 M. A. Robb, J. R. Cheeseman, G. Scalmani, V. Barone, B. Mennucci, 
 G. A. Petersson, H. Nakatsuji, M. Caricato, X. Li, H. P. Hratchian, 
 A. F. Izmaylov, J. Bloino, G. Zheng, J. L. Sonnenberg, M. Hada, 
 M. Ehara, K. Toyota, R. Fukuda, J. Hasegawa, M. Ishida, T. Nakajima, 
 Y. Honda, O. Kitao, H. Nakai, T. Vreven, J. A. Montgomery, Jr., 
 J. E. Peralta, F. Ogliaro, M. Bearpark, J. J. Heyd, E. Brothers, 
 K. N. Kudin, V. N. Staroverov, T. Keith, R. Kobayashi, J. Normand, 
 K. Raghavachari, A. Rendell, J. C. Burant, S. S. Iyengar, J. Tomasi, 
 M. Cossi, N. Rega, J. M. Millam, M. Klene, J. E. Knox, J. B. Cross, 
 V. Bakken, C. Adamo, J. Jaramillo, R. Gomperts, R. E. Stratmann, 
 O. Yazyev, A. J. Austin, R. Cammi, C. Pomelli, J. W. Ochterski, 
 R. L. Martin, K. Morokuma, V. G. Zakrzewski, G. A. Voth, 
 P. Salvador, J. J. Dannenberg, S. Dapprich, A. D. Daniels, 
 O. Farkas, J. B. Foresman, J. V. Ortiz, J. Cioslowski, 
 and D. J. Fox, Gaussian, Inc., Wallingford CT, 2013.
 
 ******************************************
 Gaussian 09:  EM64L-G09RevD.01 24-Apr-2013
                23-May-2023 
 ******************************************
 %mem=400MW
 %chk=tmp
 %NProcShared= 16
 Will use up to   16 processors via shared memory.
 -------------------------------------------------------------
 # uwb97xd/aug-cc-pvtz opt=internal # int=ultrafine nosym freq
 -------------------------------------------------------------
 1/10=7,14=-1,18=40,26=4,38=1/1,3;
 2/12=2,15=1,17=6,18=5,29=3,40=1/2;
 3/5=16,6=1,7=10,11=2,16=1,25=1,30=1,71=1,74=-58,75=-5,116=2/1,2,3;
 4//1;
 5/5=2,38=5/2;
 6/7=2,8=2,9=2,10=2,28=1/1;
 7/29=1,30=1/1,2,3,16;
 1/10=7,14=-1,18=40,26=4/3(2);
 2/15=1,29=3/2;
 99//99;
 2/15=1,29=3/2;
 3/5=16,6=1,7=10,11=2,16=1,25=1,30=1,71=1,74=-58,75=-5,116=2/1,2,3;
 4/5=5,16=3,69=1/1;
 5/5=2,38=5/2;
 7/30=1/1,2,3,16;
 1/14=-1,18=40,26=4/3(-5);
 2/15=1,29=3/2;
 6/7=2,8=2,9=2,10=2,19=2,28=1/1;
 99/9=1/99;
 ------
 geom 0
 ------
 Symbolic Z-matrix:
 Charge =  0 Multiplicity = 2
 C1
 H2                   C1   R1
 H3                   C1   R2       H2   A2
 H4                   C1   R3       H2   A3       H3   D3       0
       Variables:
  R1                    1.0812                   
  R2                    1.0811                   
  R3                    1.0811                   
  A2                  119.9273                   
  A3                  120.0457                   
  D3                  179.743                    
 

 GradGradGradGradGradGradGradGradGradGradGradGradGradGradGradGradGradGrad
 Berny optimization.
 Initialization pass.
                       ----------------------------
                       !    Initial Parameters    !
                       ! (Angstroms and Degrees)  !
 ----------------------                            ----------------------
 !      Name          Value   Derivative information (Atomic Units)     !
 ------------------------------------------------------------------------
 !       R1          1.0812   estimate D2E/DX2                          !
 !       R2          1.0811   estimate D2E/DX2                          !
 !       R3          1.0811   estimate D2E/DX2                          !
 !       A2        119.9273   estimate D2E/DX2                          !
 !       A3        120.0457   estimate D2E/DX2                          !
 !       D3        179.743    estimate D2E/DX2                          !
 ------------------------------------------------------------------------
 Trust Radius=3.00D-01 FncErr=1.00D-07 GrdErr=1.00D-06
 Number of steps in this run=     20 maximum allowed number of steps=    100.
 GradGradGradGradGradGradGradGradGradGradGradGradGradGradGradGradGradGrad

 ---------------------------------------------------------------------------------------------------
                            Z-MATRIX (ANGSTROMS AND DEGREES)
   CD    Cent   Atom    N1       Length/X        N2       Alpha/Y        N3        Beta/Z          J
 ---------------------------------------------------------------------------------------------------
      1      1  C 
      2      2  H        1   1.081200(     1)
      3      3  H        1   1.081100(     2)      2  119.927(     4)
      4      4  H        1   1.081100(     3)      2  120.046(     5)      3  179.743(     6)      0
 ---------------------------------------------------------------------------------------------------
                         Z-Matrix orientation:                         
 ---------------------------------------------------------------------
 Center     Atomic      Atomic             Coordinates (Angstroms)
 Number     Number       Type             X           Y           Z
 ---------------------------------------------------------------------
      1          6           0        0.000000    0.000000    0.000000
      2          1           0        0.000000    0.000000    1.081200
      3          1           0        0.936945    0.000000   -0.539362
      4          1           0       -0.935819   -0.004198   -0.541297
 ---------------------------------------------------------------------
                    Distance matrix (angstroms):
                    1          2          3          4
     1  C    0.000000
     2  H    1.081200   0.000000
     3  H    1.081100   1.871920   0.000000
     4  H    1.081100   1.873038   1.872770   0.000000
 Symmetry turned off by external request.
 Stoichiometry    CH3(2)
 Framework group  C1[X(CH3)]
 Deg. of freedom     6
 Full point group                 C1      NOp   1
 Rotational constants (GHZ):    286.2163559    285.8047794    143.0055930
 Standard basis: Aug-CC-pVTZ (5D, 7F)
   115 basis functions,   153 primitive gaussians,   130 cartesian basis functions
     5 alpha electrons        4 beta electrons
       nuclear repulsion energy         9.6581542591 Hartrees.
 NAtoms=    4 NActive=    4 NUniq=    4 SFac= 1.00D+00 NAtFMM=   60 NAOKFM=F Big=F
 Integral buffers will be    131072 words long.
 Raffenetti 2 integral format.
 Two-electron integral symmetry is turned off.
 Nuclear repulsion after empirical dispersion term =        9.6578930693 Hartrees.
 One-electron integrals computed using PRISM.
 NBasis=   115 RedAO= T EigKep=  1.04D-04  NBF=   115
 NBsUse=   115 1.00D-06 EigRej= -1.00D+00 NBFU=   115
 ExpMin= 2.53D-02 ExpMax= 8.24D+03 ExpMxC= 2.81D+02 IAcc=3 IRadAn=         5 AccDes= 0.00D+00
 Harris functional with IExCor= 4639 and IRadAn=       5 diagonalized for initial guess.
 HarFok:  IExCor= 4639 AccDes= 0.00D+00 IRadAn=         5 IDoV= 1 UseB2=F ITyADJ=14
 ICtDFT=  3500011 ScaDFX=  1.000000  1.000000  1.000000  1.000000
 FoFCou: FMM=F IPFlag=           0 FMFlag=      100000 FMFlg1=           0
         NFxFlg=           0 DoJE=T BraDBF=F KetDBF=T FulRan=T
         wScrn=  0.000000 ICntrl=     500 IOpCl=  0 I1Cent=   200000004 NGrid=           0
         NMat0=    1 NMatS0=      1 NMatT0=    0 NMatD0=    1 NMtDS0=    0 NMtDT0=    0
 Symmetry not used in FoFCou.
 Initial guess <Sx>= 0.0000 <Sy>= 0.0000 <Sz>= 0.5000 <S**2>= 0.7500 S= 0.5000
 Keep R1 and R2 ints in memory in canonical form, NReq=91047336.
 Requested convergence on RMS density matrix=1.00D-08 within 128 cycles.
 Requested convergence on MAX density matrix=1.00D-06.
 Requested convergence on             energy=1.00D-06.
 No special actions if energy rises.
 SCF Done:  E(UwB97XD) =  -39.8391593784     A.U. after   10 cycles
            NFock= 10  Conv=0.28D-08     -V/T= 2.0071
 <Sx>= 0.0000 <Sy>= 0.0000 <Sz>= 0.5000 <S**2>= 0.7540 S= 0.5020
 <L.S>=  0.00000000000    
 Annihilation of the first spin contaminant:
 S**2 before annihilation     0.7540,   after     0.7500

 **********************************************************************

            Population analysis using the SCF density.

 **********************************************************************

 Alpha  occ. eigenvalues --  -10.29656  -0.78598  -0.50862  -0.50841  -0.31507
 Alpha virt. eigenvalues --    0.03020   0.04912   0.04914   0.09099   0.13052
 Alpha virt. eigenvalues --    0.13057   0.13222   0.20045   0.20048   0.21752
 Alpha virt. eigenvalues --    0.25900   0.25906   0.31996   0.32371   0.32375
 Alpha virt. eigenvalues --    0.34175   0.35534   0.37680   0.39546   0.39555
 Alpha virt. eigenvalues --    0.40275   0.40277   0.42056   0.42059   0.56769
 Alpha virt. eigenvalues --    0.56823   0.68751   0.68786   0.75303   0.75314
 Alpha virt. eigenvalues --    0.77479   0.77480   0.80428   0.83409   0.89469
 Alpha virt. eigenvalues --    0.93141   0.93573   0.93577   0.94777   0.94783
 Alpha virt. eigenvalues --    1.02313   1.02342   1.03686   1.05961   1.08388
 Alpha virt. eigenvalues --    1.08419   1.09118   1.09124   1.23385   1.35063
 Alpha virt. eigenvalues --    1.35065   1.47235   1.49017   1.49734   1.49735
 Alpha virt. eigenvalues --    1.50469   1.55481   1.55511   1.62155   1.77846
 Alpha virt. eigenvalues --    1.77873   1.93781   1.93806   1.96417   2.04873
 Alpha virt. eigenvalues --    2.04898   2.06019   2.69404   2.74127   2.74132
 Alpha virt. eigenvalues --    2.97290   2.98754   2.98768   3.28898   3.34315
 Alpha virt. eigenvalues --    3.34350   3.37008   3.37012   3.42554   3.42676
 Alpha virt. eigenvalues --    3.42700   3.46878   3.65430   3.70504   3.72964
 Alpha virt. eigenvalues --    3.72980   3.99385   3.99397   4.13939   4.14012
 Alpha virt. eigenvalues --    4.14029   4.39791   4.56182   4.56191   4.59130
 Alpha virt. eigenvalues --    4.59141   4.78989   4.79106   5.03638   5.03779
 Alpha virt. eigenvalues --    5.08767   5.08831   5.16623   5.16656   5.26979
 Alpha virt. eigenvalues --    6.04295   6.18504   6.18599   6.38842  15.82547
  Beta  occ. eigenvalues --  -10.28533  -0.74092  -0.49639  -0.49618
  Beta virt. eigenvalues --   -0.00038   0.04409   0.05669   0.05671   0.13986
  Beta virt. eigenvalues --    0.13991   0.14271   0.14318   0.20308   0.20310
  Beta virt. eigenvalues --    0.24033   0.26467   0.26472   0.33236   0.33243
  Beta virt. eigenvalues --    0.34290   0.34528   0.36488   0.38329   0.40076
  Beta virt. eigenvalues --    0.40086   0.40741   0.40742   0.42345   0.42347
  Beta virt. eigenvalues --    0.59115   0.60292   0.68837   0.68873   0.75905
  Beta virt. eigenvalues --    0.75916   0.79270   0.79272   0.80522   0.84508
  Beta virt. eigenvalues --    0.90642   0.93501   0.94181   0.94184   0.95722
  Beta virt. eigenvalues --    0.95730   1.02331   1.02360   1.03502   1.06418
  Beta virt. eigenvalues --    1.09115   1.09122   1.09640   1.09670   1.23560
  Beta virt. eigenvalues --    1.35212   1.35215   1.47330   1.50238   1.50239
  Beta virt. eigenvalues --    1.50603   1.51873   1.56058   1.56090   1.64888
  Beta virt. eigenvalues --    1.78535   1.78561   1.94954   1.94981   1.96189
  Beta virt. eigenvalues --    2.05203   2.05229   2.08219   2.75503   2.75557
  Beta virt. eigenvalues --    2.75562   2.99225   3.02148   3.02162   3.33349
  Beta virt. eigenvalues --    3.37061   3.37084   3.40241   3.40245   3.42998
  Beta virt. eigenvalues --    3.44117   3.44132   3.50041   3.68203   3.70800
  Beta virt. eigenvalues --    3.73411   3.73425   4.00931   4.00941   4.15010
  Beta virt. eigenvalues --    4.15535   4.15607   4.40645   4.56516   4.56525
  Beta virt. eigenvalues --    4.59348   4.59360   4.78618   4.81000   5.04028
  Beta virt. eigenvalues --    5.04175   5.11876   5.11940   5.17185   5.17216
  Beta virt. eigenvalues --    5.28358   6.05563   6.19127   6.19223   6.39743
  Beta virt. eigenvalues --   15.85187
          Condensed to atoms (all electrons):
               1          2          3          4
     1  C    6.005891   0.346897   0.346893   0.346888
     2  H    0.346897   0.285801   0.009251   0.009215
     3  H    0.346893   0.009251   0.285784   0.009224
     4  H    0.346888   0.009215   0.009224   0.285788
          Atomic-Atomic Spin Densities.
               1          2          3          4
     1  C    0.976027   0.016736   0.016760   0.016673
     2  H    0.016736  -0.029011   0.001782   0.001788
     3  H    0.016760   0.001782  -0.029023   0.001788
     4  H    0.016673   0.001788   0.001788  -0.029049
 Mulliken charges and spin densities:
               1          2
     1  C   -1.046569   1.026197
     2  H    0.348837  -0.008704
     3  H    0.348848  -0.008693
     4  H    0.348885  -0.008800
 Sum of Mulliken charges =  -0.00000   1.00000
 Mulliken charges and spin densities with hydrogens summed into heavy atoms:
               1          2
     1  C   -0.000000   1.000000
 Electronic spatial extent (au):  <R**2>=             29.9803
 Charge=             -0.0000 electrons
 Dipole moment (field-independent basis, Debye):
    X=              0.0002    Y=             -0.0030    Z=              0.0001  Tot=              0.0030
 Quadrupole moment (field-independent basis, Debye-Ang):
   XX=             -7.1917   YY=             -9.0970   ZZ=             -7.1932
   XY=              0.0043   XZ=              0.0022   YZ=              0.0025
 Traceless Quadrupole moment (field-independent basis, Debye-Ang):
   XX=              0.6356   YY=             -1.2697   ZZ=              0.6341
   XY=              0.0043   XZ=              0.0022   YZ=              0.0025
 Octapole moment (field-independent basis, Debye-Ang**2):
  XXX=             -0.0004  YYY=              0.0077  ZZZ=              0.9278  XYY=             -0.0010
  XXY=             -0.0008  XXZ=             -0.9295  XZZ=             -0.0027  YZZ=              0.0016
  YYZ=             -0.0006  XYZ=             -0.0021
 Hexadecapole moment (field-independent basis, Debye-Ang**3):
 XXXX=            -14.9400 YYYY=            -11.9987 ZZZZ=            -14.9411 XXXY=             -0.0004
 XXXZ=             -0.0009 YYYX=             -0.0062 YYYZ=             -0.0036 ZZZX=              0.0012
 ZZZY=             -0.0022 XXYY=             -4.9165 XXZZ=             -4.9809 YYZZ=             -4.9164
 XXYZ=              0.0018 YYXZ=             -0.0005 ZZXY=             -0.0001
 N-N= 9.657893069260D+00 E-N=-1.111960613417D+02  KE= 3.955650406577D+01
                          Isotropic Fermi Contact Couplings
        Atom                 a.u.       MegaHertz       Gauss      10(-4) cm-1
     1  C(13)              0.01781      20.01831       7.14303       6.67739
     2  H(1)              -0.01406     -62.86466     -22.43167     -20.96939
     3  H(1)              -0.01407     -62.86997     -22.43357     -20.97117
     4  H(1)              -0.01407     -62.89836     -22.44370     -20.98063
 --------------------------------------------------------
       Center         ----  Spin Dipole Couplings  ----
                      3XX-RR        3YY-RR        3ZZ-RR
 --------------------------------------------------------
     1   Atom       -0.568112      1.136253     -0.568140
     2   Atom       -0.077421      0.002041      0.075380
     3   Atom        0.037344      0.002052     -0.039396
     4   Atom        0.037067      0.002052     -0.039120
 --------------------------------------------------------
                        XY            XZ            YZ
 --------------------------------------------------------
     1   Atom       -0.003819     -0.000018     -0.002206
     2   Atom       -0.000178      0.000002     -0.000013
     3   Atom       -0.000100     -0.066079     -0.000148
     4   Atom        0.000257      0.066237      0.000150
 --------------------------------------------------------


 ---------------------------------------------------------------------------------
              Anisotropic Spin Dipole Couplings in Principal Axis System
 ---------------------------------------------------------------------------------

       Atom             a.u.   MegaHertz   Gauss  10(-4) cm-1        Axes

              Baa    -0.5682   -76.241   -27.205   -25.431  0.5322  0.0023  0.8466
     1 C(13)  Bbb    -0.5681   -76.234   -27.202   -25.429  0.8466  0.0012 -0.5322
              Bcc     1.1363   152.476    54.407    50.860 -0.0022  1.0000 -0.0013
 
              Baa    -0.0774   -41.309   -14.740   -13.779  1.0000  0.0022 -0.0000
     2 H(1)   Bbb     0.0020     1.089     0.389     0.363 -0.0022  1.0000  0.0002
              Bcc     0.0754    40.219    14.351    13.416  0.0000 -0.0002  1.0000
 
              Baa    -0.0774   -41.317   -14.743   -13.782  0.4989  0.0022  0.8666
     3 H(1)   Bbb     0.0021     1.095     0.391     0.365 -0.0010  1.0000 -0.0020
              Bcc     0.0754    40.222    14.352    13.417  0.8666 -0.0002 -0.4989
 
              Baa    -0.0774   -41.316   -14.743   -13.782 -0.5007 -0.0000  0.8656
     4 H(1)   Bbb     0.0021     1.094     0.390     0.365 -0.0035  1.0000 -0.0020
              Bcc     0.0754    40.222    14.352    13.417  0.8656  0.0041  0.5007
 

 ---------------------------------------------------------------------------------

 Calling FoFJK, ICntrl=      2127 FMM=F ISym2X=0 I1Cent= 0 IOpClX= 1 NMat=1 NMatS=1 NMatT=0.
 -------------------------------------------------------------------
 Center     Atomic                   Forces (Hartrees/Bohr)
 Number     Number              X              Y              Z
 -------------------------------------------------------------------
      1        6           0.000116920   -0.000072280    0.000131838
      2        1          -0.000095478    0.000021455   -0.002040685
      3        1          -0.001745499    0.000021691    0.000903112
      4        1           0.001724057    0.000029134    0.001005734
 -------------------------------------------------------------------
 Cartesian Forces:  Max     0.002040685 RMS     0.001002406
 -----------------------------------------------------------------------------------------------
                       Internal Coordinate Forces (Hartree/Bohr or radian)
  Cent   Atom   N1       Length/X         N2         Alpha/Y        N3         Beta/Z          J
 -----------------------------------------------------------------------------------------------
      1  C 
      2  H        1  -0.002041(     1)
      3  H        1  -0.001963(     2)      2   0.000180(     4)
      4  H        1  -0.001996(     3)      2  -0.000015(     5)      3   0.000038(     6)     0
 -----------------------------------------------------------------------------------------------
 Internal  Forces:  Max     0.002040685 RMS     0.001416410

 GradGradGradGradGradGradGradGradGradGradGradGradGradGradGradGradGradGrad
 Berny optimization.
 Search for a local minimum.
 Step number   1 out of a maximum of   20
 All quantities printed in internal units (Hartrees-Bohrs-Radians)
 Second derivative matrix not updated -- first step.
 The second derivative matrix:
                          R1        R2        R3        A2        A3
           R1           0.35850
           R2           0.00000   0.35862
           R3           0.00000   0.00000   0.35862
           A2           0.00000  -0.00000   0.00000   0.32000
           A3           0.00000   0.00000   0.00000   0.16000   0.32000
           D3           0.00000  -0.00000  -0.00000  -0.00053  -0.00053
                          D3
           D3           0.03372
 ITU=  0
     Eigenvalues ---    0.03372   0.16000   0.35850   0.35862   0.35862
     Eigenvalues ---    0.48000
 RFO step:  Lambda=-3.36648360D-05 EMin= 3.37183411D-02
 Linear search not attempted -- first point.
 Variable       Old X    -DE/DX   Delta X   Delta X   Delta X     New X
                                 (Linear)    (Quad)   (Total)
    R1        2.04317  -0.00204   0.00000  -0.00569  -0.00569   2.03748
    R2        2.04298  -0.00196   0.00000  -0.00547  -0.00547   2.03751
    R3        2.04298  -0.00200   0.00000  -0.00557  -0.00557   2.03742
    A2        2.09313   0.00018   0.00000   0.00078   0.00078   2.09391
    A3        2.09519  -0.00001   0.00000  -0.00044  -0.00044   2.09476
    D3        3.13711   0.00004   0.00000   0.00113   0.00113   3.13823
         Item               Value     Threshold  Converged?
 Maximum Force            0.002041     0.000450     NO 
 RMS     Force            0.001416     0.000300     NO 
 Maximum Displacement     0.005692     0.001800     NO 
 RMS     Displacement     0.003988     0.001200     NO 
 Predicted change in Energy=-1.683242D-05
 GradGradGradGradGradGradGradGradGradGradGradGradGradGradGradGradGradGrad

 ---------------------------------------------------------------------------------------------------
                            Z-MATRIX (ANGSTROMS AND DEGREES)
   CD    Cent   Atom    N1       Length/X        N2       Alpha/Y        N3        Beta/Z          J
 ---------------------------------------------------------------------------------------------------
      1      1  C 
      2      2  H        1   1.078188(     1)
      3      3  H        1   1.078203(     2)      2  119.972(     4)
      4      4  H        1   1.078155(     3)      2  120.021(     5)      3  179.808(     6)      0
 ---------------------------------------------------------------------------------------------------
                         Z-Matrix orientation:                         
 ---------------------------------------------------------------------
 Center     Atomic      Atomic             Coordinates (Angstroms)
 Number     Number       Type             X           Y           Z
 ---------------------------------------------------------------------
      1          6           0        0.000000    0.000000    0.000000
      2          1           0        0.000000    0.000000    1.078188
      3          1           0        0.934013    0.000000   -0.538647
      4          1           0       -0.933509   -0.003135   -0.539415
 ---------------------------------------------------------------------
                    Distance matrix (angstroms):
                    1          2          3          4
     1  C    0.000000
     2  H    1.078188   0.000000
     3  H    1.078203   1.867227   0.000000
     4  H    1.078155   1.867643   1.867525   0.000000
 Symmetry turned off by external request.
 Stoichiometry    CH3(2)
 Framework group  C1[X(CH3)]
 Deg. of freedom     6
 Full point group                 C1      NOp   1
 Rotational constants (GHZ):    287.6546375    287.5023359    143.7894493
 Standard basis: Aug-CC-pVTZ (5D, 7F)
   115 basis functions,   153 primitive gaussians,   130 cartesian basis functions
     5 alpha electrons        4 beta electrons
       nuclear repulsion energy         9.6845909265 Hartrees.
 NAtoms=    4 NActive=    4 NUniq=    4 SFac= 1.00D+00 NAtFMM=   60 NAOKFM=F Big=F
 Integral buffers will be    131072 words long.
 Raffenetti 2 integral format.
 Two-electron integral symmetry is turned off.
 Nuclear repulsion after empirical dispersion term =        9.6843334142 Hartrees.
 One-electron integrals computed using PRISM.
 NBasis=   115 RedAO= T EigKep=  1.02D-04  NBF=   115
 NBsUse=   115 1.00D-06 EigRej= -1.00D+00 NBFU=   115
 Initial guess from the checkpoint file:  "tmp.chk"
 B after Tr=    -0.000130    0.000223   -0.000087
         Rot=    1.000000   -0.000162   -0.000203    0.000281 Ang=  -0.04 deg.
 Initial guess <Sx>= 0.0000 <Sy>= 0.0000 <Sz>= 0.5000 <S**2>= 0.7540 S= 0.5020
 Keep R1 and R2 ints in memory in canonical form, NReq=91047336.
 Requested convergence on RMS density matrix=1.00D-08 within 128 cycles.
 Requested convergence on MAX density matrix=1.00D-06.
 Requested convergence on             energy=1.00D-06.
 No special actions if energy rises.
 SCF Done:  E(UwB97XD) =  -39.8391758199     A.U. after    7 cycles
            NFock=  7  Conv=0.64D-08     -V/T= 2.0068
 <Sx>= 0.0000 <Sy>= 0.0000 <Sz>= 0.5000 <S**2>= 0.7540 S= 0.5020
 <L.S>=  0.00000000000    
 Annihilation of the first spin contaminant:
 S**2 before annihilation     0.7540,   after     0.7500
 Calling FoFJK, ICntrl=      2127 FMM=F ISym2X=0 I1Cent= 0 IOpClX= 1 NMat=1 NMatS=1 NMatT=0.
 -------------------------------------------------------------------
 Center     Atomic                   Forces (Hartrees/Bohr)
 Number     Number              X              Y              Z
 -------------------------------------------------------------------
      1        6           0.000075722   -0.000049517    0.000038738
      2        1          -0.000038662    0.000016557    0.000052712
      3        1           0.000024601    0.000016715   -0.000057324
      4        1          -0.000061661    0.000016245   -0.000034126
 -------------------------------------------------------------------
 Cartesian Forces:  Max     0.000075722 RMS     0.000044380
 -----------------------------------------------------------------------------------------------
                       Internal Coordinate Forces (Hartree/Bohr or radian)
  Cent   Atom   N1       Length/X         N2         Alpha/Y        N3         Beta/Z          J
 -----------------------------------------------------------------------------------------------
      1  C 
      2  H        1   0.000053(     1)
      3  H        1   0.000050(     2)      2   0.000076(     4)
      4  H        1   0.000070(     3)      2  -0.000003(     5)      3   0.000029(     6)     0
 -----------------------------------------------------------------------------------------------
 Internal  Forces:  Max     0.000076137 RMS     0.000053037

 GradGradGradGradGradGradGradGradGradGradGradGradGradGradGradGradGradGrad
 Berny optimization.
 Search for a local minimum.
 Step number   2 out of a maximum of   20
 All quantities printed in internal units (Hartrees-Bohrs-Radians)
 Update second derivatives using D2CorN and points    1    2
 DE= -1.64D-05 DEPred=-1.68D-05 R= 9.77D-01
 TightC=F SS=  1.41D+00  RLast= 9.77D-03 DXNew= 5.0454D-01 2.9303D-02
 Trust test= 9.77D-01 RLast= 9.77D-03 DXMaxT set to 3.00D-01
 The second derivative matrix:
                          R1        R2        R3        A2        A3
           R1           0.36165
           R2           0.00301   0.36149
           R3           0.00365   0.00349   0.36274
           A2           0.00205   0.00198   0.00193   0.31937
           A3           0.00004   0.00004   0.00009   0.16018   0.31999
           D3           0.00055   0.00054   0.00043  -0.00110  -0.00045
                          D3
           D3           0.03338
 ITU=  1  0
     Eigenvalues ---    0.03337   0.15947   0.35851   0.35858   0.36877
     Eigenvalues ---    0.47992
 RFO step:  Lambda=-5.40797317D-08 EMin= 3.33705430D-02
 Quartic linear search produced a step of -0.02505.
 Variable       Old X    -DE/DX   Delta X   Delta X   Delta X     New X
                                 (Linear)    (Quad)   (Total)
    R1        2.03748   0.00005   0.00014  -0.00000   0.00014   2.03762
    R2        2.03751   0.00005   0.00014  -0.00001   0.00013   2.03764
    R3        2.03742   0.00007   0.00014   0.00005   0.00019   2.03760
    A2        2.09391   0.00008  -0.00002   0.00034   0.00032   2.09423
    A3        2.09476  -0.00000   0.00001  -0.00018  -0.00017   2.09459
    D3        3.13823   0.00003  -0.00003   0.00089   0.00086   3.13909
         Item               Value     Threshold  Converged?
 Maximum Force            0.000076     0.000450     YES
 RMS     Force            0.000053     0.000300     YES
 Maximum Displacement     0.000859     0.001800     YES
 RMS     Displacement     0.000395     0.001200     YES
 Predicted change in Energy=-3.878180D-08
 Optimization completed.
    -- Stationary point found.
                       ----------------------------
                       !   Optimized Parameters   !
                       ! (Angstroms and Degrees)  !
 ----------------------                            ----------------------
 !      Name          Value   Derivative information (Atomic Units)     !
 ------------------------------------------------------------------------
 !       R1          1.0782   -DE/DX =    0.0001                        !
 !       R2          1.0782   -DE/DX =    0.0                           !
 !       R3          1.0782   -DE/DX =    0.0001                        !
 !       A2        119.9721   -DE/DX =    0.0001                        !
 !       A3        120.0207   -DE/DX =    0.0                           !
 !       D3        179.8076   -DE/DX =    0.0                           !
 ------------------------------------------------------------------------
 GradGradGradGradGradGradGradGradGradGradGradGradGradGradGradGradGradGrad

 ---------------------------------------------------------------------------------------------------
                            Z-MATRIX (ANGSTROMS AND DEGREES)
   CD    Cent   Atom    N1       Length/X        N2       Alpha/Y        N3        Beta/Z          J
 ---------------------------------------------------------------------------------------------------
      1      1  C 
      2      2  H        1   1.078188(     1)
      3      3  H        1   1.078203(     2)      2  119.972(     4)
      4      4  H        1   1.078155(     3)      2  120.021(     5)      3  179.808(     6)      0
 ---------------------------------------------------------------------------------------------------
                         Z-Matrix orientation:                         
 ---------------------------------------------------------------------
 Center     Atomic      Atomic             Coordinates (Angstroms)
 Number     Number       Type             X           Y           Z
 ---------------------------------------------------------------------
      1          6           0        0.000000    0.000000    0.000000
      2          1           0        0.000000    0.000000    1.078188
      3          1           0        0.934013    0.000000   -0.538647
      4          1           0       -0.933509   -0.003135   -0.539415
 ---------------------------------------------------------------------
                    Distance matrix (angstroms):
                    1          2          3          4
     1  C    0.000000
     2  H    1.078188   0.000000
     3  H    1.078203   1.867227   0.000000
     4  H    1.078155   1.867643   1.867525   0.000000
 Symmetry turned off by external request.
 Stoichiometry    CH3(2)
 Framework group  C1[X(CH3)]
 Deg. of freedom     6
 Full point group                 C1      NOp   1
 Rotational constants (GHZ):    287.6546375    287.5023359    143.7894493

 **********************************************************************

            Population analysis using the SCF density.

 **********************************************************************

 Alpha  occ. eigenvalues --  -10.29561  -0.78677  -0.50922  -0.50913  -0.31505
 Alpha virt. eigenvalues --    0.03022   0.04910   0.04911   0.09094   0.13055
 Alpha virt. eigenvalues --    0.13057   0.13242   0.20089   0.20091   0.21811
 Alpha virt. eigenvalues --    0.25913   0.25915   0.31999   0.32377   0.32379
 Alpha virt. eigenvalues --    0.34200   0.35544   0.37724   0.39553   0.39557
 Alpha virt. eigenvalues --    0.40317   0.40318   0.42090   0.42091   0.56863
 Alpha virt. eigenvalues --    0.56885   0.68790   0.68804   0.75389   0.75393
 Alpha virt. eigenvalues --    0.77394   0.77394   0.80511   0.83401   0.89500
 Alpha virt. eigenvalues --    0.93185   0.93625   0.93626   0.94811   0.94814
 Alpha virt. eigenvalues --    1.02407   1.02419   1.03795   1.06031   1.08569
 Alpha virt. eigenvalues --    1.08580   1.09146   1.09149   1.23460   1.35215
 Alpha virt. eigenvalues --    1.35216   1.47355   1.49127   1.49765   1.49766
 Alpha virt. eigenvalues --    1.50697   1.55625   1.55637   1.62130   1.78129
 Alpha virt. eigenvalues --    1.78141   1.93869   1.93879   1.96278   2.05016
 Alpha virt. eigenvalues --    2.05024   2.06419   2.69578   2.73995   2.73996
 Alpha virt. eigenvalues --    2.97397   2.98723   2.98729   3.29168   3.34251
 Alpha virt. eigenvalues --    3.34263   3.37026   3.37027   3.42814   3.42820
 Alpha virt. eigenvalues --    3.43053   3.47026   3.65815   3.70490   3.73405
 Alpha virt. eigenvalues --    3.73413   3.99789   3.99792   4.14373   4.14400
 Alpha virt. eigenvalues --    4.14641   4.39972   4.56671   4.56675   4.59555
 Alpha virt. eigenvalues --    4.59561   4.79077   4.79539   5.04730   5.04786
 Alpha virt. eigenvalues --    5.09720   5.09740   5.17656   5.17669   5.28080
 Alpha virt. eigenvalues --    6.05846   6.18382   6.18420   6.40460  15.90319
  Beta  occ. eigenvalues --  -10.28440  -0.74176  -0.49697  -0.49688
  Beta virt. eigenvalues --   -0.00037   0.04418   0.05671   0.05672   0.13995
  Beta virt. eigenvalues --    0.13997   0.14292   0.14324   0.20350   0.20351
  Beta virt. eigenvalues --    0.24098   0.26487   0.26489   0.33244   0.33247
  Beta virt. eigenvalues --    0.34319   0.34537   0.36501   0.38381   0.40094
  Beta virt. eigenvalues --    0.40097   0.40780   0.40781   0.42389   0.42390
  Beta virt. eigenvalues --    0.59235   0.60354   0.68884   0.68898   0.75989
  Beta virt. eigenvalues --    0.75993   0.79195   0.79195   0.80607   0.84505
  Beta virt. eigenvalues --    0.90665   0.93548   0.94235   0.94236   0.95760
  Beta virt. eigenvalues --    0.95763   1.02424   1.02436   1.03610   1.06497
  Beta virt. eigenvalues --    1.09147   1.09150   1.09828   1.09839   1.23631
  Beta virt. eigenvalues --    1.35366   1.35367   1.47450   1.50269   1.50270
  Beta virt. eigenvalues --    1.50832   1.51994   1.56203   1.56215   1.64867
  Beta virt. eigenvalues --    1.78818   1.78830   1.95029   1.95040   1.96048
  Beta virt. eigenvalues --    2.05337   2.05346   2.08620   2.75424   2.75424
  Beta virt. eigenvalues --    2.75665   2.99330   3.02129   3.02135   3.33627
  Beta virt. eigenvalues --    3.36999   3.37008   3.40248   3.40249   3.43494
  Beta virt. eigenvalues --    3.44253   3.44257   3.50201   3.68590   3.70793
  Beta virt. eigenvalues --    3.73839   3.73846   4.01346   4.01348   4.15630
  Beta virt. eigenvalues --    4.15965   4.15991   4.40840   4.57022   4.57027
  Beta virt. eigenvalues --    4.59772   4.59778   4.78591   4.81539   5.05127
  Beta virt. eigenvalues --    5.05186   5.12841   5.12861   5.18217   5.18230
  Beta virt. eigenvalues --    5.29458   6.07119   6.19008   6.19047   6.41364
  Beta virt. eigenvalues --   15.92940
          Condensed to atoms (all electrons):
               1          2          3          4
     1  C    6.006271   0.347049   0.347045   0.347045
     2  H    0.347049   0.285363   0.009233   0.009218
     3  H    0.347045   0.009233   0.285372   0.009224
     4  H    0.347045   0.009218   0.009224   0.285365
          Atomic-Atomic Spin Densities.
               1          2          3          4
     1  C    0.974237   0.016957   0.016935   0.016916
     2  H    0.016957  -0.028839   0.001787   0.001790
     3  H    0.016935   0.001787  -0.028869   0.001788
     4  H    0.016916   0.001790   0.001788  -0.028874
 Mulliken charges and spin densities:
               1          2
     1  C   -1.047410   1.025044
     2  H    0.349137  -0.008306
     3  H    0.349126  -0.008359
     4  H    0.349147  -0.008380
 Sum of Mulliken charges =  -0.00000   1.00000
 Mulliken charges and spin densities with hydrogens summed into heavy atoms:
               1          2
     1  C   -0.000000   1.000000
 Electronic spatial extent (au):  <R**2>=             29.9000
 Charge=             -0.0000 electrons
 Dipole moment (field-independent basis, Debye):
    X=              0.0001    Y=             -0.0022    Z=              0.0000  Tot=              0.0022
 Quadrupole moment (field-independent basis, Debye-Ang):
   XX=             -7.1895   YY=             -9.0862   ZZ=             -7.1899
   XY=              0.0032   XZ=              0.0009   YZ=              0.0018
 Traceless Quadrupole moment (field-independent basis, Debye-Ang):
   XX=              0.6324   YY=             -1.2643   ZZ=              0.6320
   XY=              0.0032   XZ=              0.0009   YZ=              0.0018
 Octapole moment (field-independent basis, Debye-Ang**2):
  XXX=             -0.0003  YYY=              0.0057  ZZZ=              0.9196  XYY=             -0.0005
  XXY=             -0.0006  XXZ=             -0.9199  XZZ=             -0.0011  YZZ=              0.0012
  YYZ=             -0.0001  XYZ=             -0.0015
 Hexadecapole moment (field-independent basis, Debye-Ang**3):
 XXXX=            -14.8817 YYYY=            -11.9824 ZZZZ=            -14.8817 XXXY=             -0.0003
 XXXZ=             -0.0003 YYYX=             -0.0046 YYYZ=             -0.0026 ZZZX=              0.0006
 ZZZY=             -0.0016 XXYY=             -4.8993 XXZZ=             -4.9607 YYZZ=             -4.8992
 XXYZ=              0.0014 YYXZ=             -0.0001 ZZXY=             -0.0001
 N-N= 9.684333414232D+00 E-N=-1.112577024651D+02  KE= 3.956926302750D+01
                          Isotropic Fermi Contact Couplings
        Atom                 a.u.       MegaHertz       Gauss      10(-4) cm-1
     1  C(13)              0.01738      19.53504       6.97059       6.51619
     2  H(1)              -0.01402     -62.67616     -22.36441     -20.90652
     3  H(1)              -0.01402     -62.68940     -22.36914     -20.91093
     4  H(1)              -0.01403     -62.69861     -22.37242     -20.91400
 --------------------------------------------------------
       Center         ----  Spin Dipole Couplings  ----
                      3XX-RR        3YY-RR        3ZZ-RR
 --------------------------------------------------------
     1   Atom       -0.568036      1.136119     -0.568083
     2   Atom       -0.077825      0.002330      0.075495
     3   Atom        0.037224      0.002331     -0.039555
     4   Atom        0.037110      0.002335     -0.039445
 --------------------------------------------------------
                        XY            XZ            YZ
 --------------------------------------------------------
     1   Atom       -0.002861     -0.000008     -0.001652
     2   Atom       -0.000135      0.000001     -0.000010
     3   Atom       -0.000076     -0.066354     -0.000112
     4   Atom        0.000192      0.066423      0.000112
 --------------------------------------------------------


 ---------------------------------------------------------------------------------
              Anisotropic Spin Dipole Couplings in Principal Axis System
 ---------------------------------------------------------------------------------

       Atom             a.u.   MegaHertz   Gauss  10(-4) cm-1        Axes

              Baa    -0.5681   -76.232   -27.201   -25.428  0.2325  0.0013  0.9726
     1 C(13)  Bbb    -0.5680   -76.225   -27.199   -25.426  0.9726  0.0014 -0.2325
              Bcc     1.1361   152.457    54.400    50.854 -0.0017  1.0000 -0.0010
 
              Baa    -0.0778   -41.524   -14.817   -13.851  1.0000  0.0017 -0.0000
     2 H(1)   Bbb     0.0023     1.243     0.444     0.415 -0.0017  1.0000  0.0001
              Bcc     0.0755    40.280    14.373    13.436  0.0000 -0.0001  1.0000
 
              Baa    -0.0778   -41.523   -14.817   -13.851  0.4996  0.0017  0.8662
     3 H(1)   Bbb     0.0023     1.244     0.444     0.415 -0.0007  1.0000 -0.0015
              Bcc     0.0755    40.280    14.373    13.436  0.8663 -0.0001 -0.4996
 
              Baa    -0.0778   -41.527   -14.818   -13.852 -0.5004 -0.0000  0.8658
     4 H(1)   Bbb     0.0023     1.246     0.444     0.415 -0.0026  1.0000 -0.0015
              Bcc     0.0755    40.281    14.373    13.436  0.8658  0.0030  0.5003
 

 ---------------------------------------------------------------------------------

 1\1\GINC-NODE-5-4\FOpt\UwB97XD\Aug-CC-pVTZ\C1H3(2)\ADELLALIBERA\23-May
 -2023\1\\# uwb97xd/aug-cc-pvtz opt=internal # int=ultrafine nosym freq
 \\geom 0\\0,2\C\H,1,R1\H,1,R2,2,A2\H,1,R3,2,A3,3,D3,0\\R1=1.07818803\R
 2=1.0782032\R3=1.0781549\A2=119.97213583\A3=120.02071719\D3=179.807557
 43\\Version=EM64L-G09RevD.01\HF=-39.8391758\S2=0.753964\S2-1=0.\S2A=0.
 750009\RMSD=6.390e-09\RMSF=4.438e-05\Dipole=0.0000349,-0.0008751,0.000
 0167\Quadrupole=0.4701453,-0.9399915,0.4698462,0.0023667,0.0006356,0.0
 013685\PG=C01 [X(C1H3)]\\@


 THE PROMISED LAND ALWAYS LIES ON THE OTHER SIDE OF A WILDERNESS.

                         -- HAVELOCK ELLIS
 Job cpu time:       0 days  0 hours  1 minutes 49.4 seconds.
 File lengths (MBytes):  RWF=     66 Int=      0 D2E=      0 Chk=      3 Scr=      1
 Normal termination of Gaussian 09 at Tue May 23 11:49:36 2023.
 Link1:  Proceeding to internal job step number  2.
 ----------------------------------------------------------------------
 #N Geom=AllCheck Guess=TCheck SCRF=Check GenChk UwB97XD/Aug-CC-pVTZ Fr
 eq
 ----------------------------------------------------------------------
 1/10=4,29=7,30=1,38=1,40=1/1,3;
 2/12=2,15=1,40=1/2;
 3/5=16,6=1,7=10,11=2,14=-4,16=1,25=1,30=1,70=2,71=2,74=-58,75=-5,116=2,140=1/1,2,3;
 4/5=101/1;
 5/5=2,98=1/2;
 8/6=4,10=90,11=11/1;
 11/6=1,8=1,9=11,15=111,16=1,31=1/1,2,10;
 10/6=1,31=1/2;
 6/7=2,8=2,9=2,10=2,18=1,28=1/1;
 7/8=1,10=1,25=1,30=1/1,2,3,16;
 1/10=4,30=1/3;
 99//99;
 Structure from the checkpoint file:  "tmp.chk"
 ------
 geom 0
 ------
 Charge =  0 Multiplicity = 2
 Z-Matrix found in file.
 C
 H,1,R1
 H,1,R2,2,A2
 H,1,R3,2,A3,3,D3,0
      Variables:
 R1=1.07818803
 R2=1.0782032
 R3=1.0781549
 A2=119.97213583
 A3=120.02071719
 D3=179.80755743
 Recover connectivity data from disk.

 GradGradGradGradGradGradGradGradGradGradGradGradGradGradGradGradGradGrad
 Berny optimization.
 Initialization pass.
                       ----------------------------
                       !    Initial Parameters    !
                       ! (Angstroms and Degrees)  !
 ----------------------                            ----------------------
 !      Name          Value   Derivative information (Atomic Units)     !
 ------------------------------------------------------------------------
 !       R1          1.0782   calculate D2E/DX2 analytically            !
 !       R2          1.0782   calculate D2E/DX2 analytically            !
 !       R3          1.0782   calculate D2E/DX2 analytically            !
 !       A2        119.9721   calculate D2E/DX2 analytically            !
 !       A3        120.0207   calculate D2E/DX2 analytically            !
 !       D3        179.8076   calculate D2E/DX2 analytically            !
 ------------------------------------------------------------------------
 Trust Radius=3.00D-01 FncErr=1.00D-07 GrdErr=1.00D-07
 Number of steps in this run=      2 maximum allowed number of steps=      2.
 GradGradGradGradGradGradGradGradGradGradGradGradGradGradGradGradGradGrad

                          Input orientation:                          
 ---------------------------------------------------------------------
 Center     Atomic      Atomic             Coordinates (Angstroms)
 Number     Number       Type             X           Y           Z
 ---------------------------------------------------------------------
      1          6           0        0.000000    0.000000    0.000000
      2          1           0        0.000000    0.000000    1.078188
      3          1           0        0.934013    0.000000   -0.538647
      4          1           0       -0.933509   -0.003135   -0.539415
 ---------------------------------------------------------------------
                    Distance matrix (angstroms):
                    1          2          3          4
     1  C    0.000000
     2  H    1.078188   0.000000
     3  H    1.078203   1.867227   0.000000
     4  H    1.078155   1.867643   1.867525   0.000000
 Symmetry turned off by external request.
 Stoichiometry    CH3(2)
 Framework group  C1[X(CH3)]
 Deg. of freedom     6
 Full point group                 C1      NOp   1
 Rotational constants (GHZ):    287.6546375    287.5023359    143.7894493
 Standard basis: Aug-CC-pVTZ (5D, 7F)
   115 basis functions,   153 primitive gaussians,   130 cartesian basis functions
     5 alpha electrons        4 beta electrons
       nuclear repulsion energy         9.6845909265 Hartrees.
 NAtoms=    4 NActive=    4 NUniq=    4 SFac= 1.00D+00 NAtFMM=   60 NAOKFM=F Big=F
 Integral buffers will be    131072 words long.
 Raffenetti 2 integral format.
 Two-electron integral symmetry is turned off.
 Nuclear repulsion after empirical dispersion term =        9.6843334142 Hartrees.
 One-electron integrals computed using PRISM.
 NBasis=   115 RedAO= T EigKep=  1.02D-04  NBF=   115
 NBsUse=   115 1.00D-06 EigRej= -1.00D+00 NBFU=   115
 Initial guess from the checkpoint file:  "tmp.chk"
 B after Tr=     0.000000    0.000000    0.000000
         Rot=    1.000000    0.000000    0.000000    0.000000 Ang=   0.00 deg.
 Initial guess <Sx>= 0.0000 <Sy>= 0.0000 <Sz>= 0.5000 <S**2>= 0.7540 S= 0.5020
 Keep R1 and R2 ints in memory in canonical form, NReq=91047336.
 Requested convergence on RMS density matrix=1.00D-08 within 128 cycles.
 Requested convergence on MAX density matrix=1.00D-06.
 Requested convergence on             energy=1.00D-06.
 No special actions if energy rises.
 SCF Done:  E(UwB97XD) =  -39.8391758199     A.U. after    1 cycles
            NFock=  1  Conv=0.20D-08     -V/T= 2.0068
 <Sx>= 0.0000 <Sy>= 0.0000 <Sz>= 0.5000 <S**2>= 0.7540 S= 0.5020
 <L.S>=  0.00000000000    
 Annihilation of the first spin contaminant:
 S**2 before annihilation     0.7540,   after     0.7500
 DoSCS=F DFT=T ScalE2(SS,OS)=  1.000000  1.000000
 Range of M.O.s used for correlation:     1   115
 NBasis=   115 NAE=     5 NBE=     4 NFC=     0 NFV=     0
 NROrb=    115 NOA=     5 NOB=     4 NVA=   110 NVB=   111

 **** Warning!!: The largest alpha MO coefficient is  0.45536991D+02


 **** Warning!!: The largest beta MO coefficient is  0.46270806D+02

 Symmetrizing basis deriv contribution to polar:
 IMax=3 JMax=2 DiffMx= 0.00D+00
 G2DrvN: will do     5 centers at a time, making    1 passes.
 Calling FoFCou, ICntrl=  3107 FMM=F I1Cent=   0 AccDes= 0.00D+00.
 End of G2Drv F.D. properties file   721 does not exist.
 End of G2Drv F.D. properties file   722 does not exist.
 End of G2Drv F.D. properties file   788 does not exist.
          IDoAtm=1111
          Differentiating once with respect to electric field.
                with respect to dipole field.
          Differentiating once with respect to nuclear coordinates.
 Keep R1 and R2 ints in memory in canonical form, NReq=90992822.
          There are    15 degrees of freedom in the 1st order CPHF.  IDoFFX=6 NUNeed=     3.
     12 vectors produced by pass  0 Test12= 6.63D-15 6.67D-09 XBig12= 1.03D+01 1.77D+00.
 AX will form    12 AO Fock derivatives at one time.
     12 vectors produced by pass  1 Test12= 6.63D-15 6.67D-09 XBig12= 8.07D-01 4.23D-01.
     12 vectors produced by pass  2 Test12= 6.63D-15 6.67D-09 XBig12= 1.75D-02 4.58D-02.
     12 vectors produced by pass  3 Test12= 6.63D-15 6.67D-09 XBig12= 1.54D-04 3.18D-03.
     12 vectors produced by pass  4 Test12= 6.63D-15 6.67D-09 XBig12= 8.68D-07 3.70D-04.
     12 vectors produced by pass  5 Test12= 6.63D-15 6.67D-09 XBig12= 8.74D-09 2.70D-05.
     11 vectors produced by pass  6 Test12= 6.63D-15 6.67D-09 XBig12= 5.80D-11 2.68D-06.
      4 vectors produced by pass  7 Test12= 6.63D-15 6.67D-09 XBig12= 5.73D-13 3.24D-07.
      2 vectors produced by pass  8 Test12= 6.63D-15 6.67D-09 XBig12= 1.80D-15 1.15D-08.
 InvSVY:  IOpt=1 It=  1 EMax= 6.66D-16
 Solved reduced A of dimension    89 with    12 vectors.
 Isotropic polarizability for W=    0.000000       16.17 Bohr**3.
 End of Minotr F.D. properties file   721 does not exist.
 End of Minotr F.D. properties file   722 does not exist.
 End of Minotr F.D. properties file   788 does not exist.

 **********************************************************************

            Population analysis using the SCF density.

 **********************************************************************

 Alpha  occ. eigenvalues --  -10.29561  -0.78677  -0.50922  -0.50913  -0.31505
 Alpha virt. eigenvalues --    0.03022   0.04910   0.04911   0.09094   0.13055
 Alpha virt. eigenvalues --    0.13057   0.13242   0.20089   0.20091   0.21811
 Alpha virt. eigenvalues --    0.25913   0.25915   0.31999   0.32377   0.32379
 Alpha virt. eigenvalues --    0.34200   0.35544   0.37724   0.39553   0.39557
 Alpha virt. eigenvalues --    0.40317   0.40318   0.42090   0.42091   0.56863
 Alpha virt. eigenvalues --    0.56885   0.68790   0.68804   0.75389   0.75393
 Alpha virt. eigenvalues --    0.77394   0.77394   0.80511   0.83401   0.89500
 Alpha virt. eigenvalues --    0.93185   0.93625   0.93626   0.94811   0.94814
 Alpha virt. eigenvalues --    1.02407   1.02419   1.03795   1.06031   1.08569
 Alpha virt. eigenvalues --    1.08580   1.09146   1.09149   1.23460   1.35215
 Alpha virt. eigenvalues --    1.35216   1.47355   1.49127   1.49765   1.49766
 Alpha virt. eigenvalues --    1.50697   1.55625   1.55637   1.62130   1.78129
 Alpha virt. eigenvalues --    1.78141   1.93869   1.93879   1.96278   2.05016
 Alpha virt. eigenvalues --    2.05024   2.06419   2.69578   2.73995   2.73996
 Alpha virt. eigenvalues --    2.97397   2.98723   2.98729   3.29168   3.34251
 Alpha virt. eigenvalues --    3.34263   3.37026   3.37027   3.42814   3.42820
 Alpha virt. eigenvalues --    3.43053   3.47026   3.65815   3.70490   3.73405
 Alpha virt. eigenvalues --    3.73413   3.99789   3.99792   4.14373   4.14400
 Alpha virt. eigenvalues --    4.14641   4.39972   4.56671   4.56675   4.59555
 Alpha virt. eigenvalues --    4.59561   4.79077   4.79539   5.04730   5.04786
 Alpha virt. eigenvalues --    5.09720   5.09740   5.17656   5.17669   5.28080
 Alpha virt. eigenvalues --    6.05846   6.18382   6.18420   6.40460  15.90319
  Beta  occ. eigenvalues --  -10.28440  -0.74176  -0.49697  -0.49688
  Beta virt. eigenvalues --   -0.00037   0.04418   0.05671   0.05672   0.13995
  Beta virt. eigenvalues --    0.13997   0.14292   0.14324   0.20350   0.20351
  Beta virt. eigenvalues --    0.24098   0.26487   0.26489   0.33244   0.33247
  Beta virt. eigenvalues --    0.34319   0.34537   0.36501   0.38381   0.40094
  Beta virt. eigenvalues --    0.40097   0.40780   0.40781   0.42389   0.42390
  Beta virt. eigenvalues --    0.59235   0.60354   0.68884   0.68898   0.75989
  Beta virt. eigenvalues --    0.75993   0.79195   0.79195   0.80607   0.84505
  Beta virt. eigenvalues --    0.90665   0.93548   0.94235   0.94236   0.95760
  Beta virt. eigenvalues --    0.95763   1.02424   1.02436   1.03610   1.06497
  Beta virt. eigenvalues --    1.09147   1.09150   1.09828   1.09839   1.23631
  Beta virt. eigenvalues --    1.35366   1.35367   1.47450   1.50269   1.50270
  Beta virt. eigenvalues --    1.50832   1.51994   1.56203   1.56215   1.64867
  Beta virt. eigenvalues --    1.78818   1.78830   1.95029   1.95040   1.96048
  Beta virt. eigenvalues --    2.05337   2.05346   2.08620   2.75424   2.75424
  Beta virt. eigenvalues --    2.75665   2.99330   3.02129   3.02135   3.33627
  Beta virt. eigenvalues --    3.36999   3.37008   3.40248   3.40249   3.43494
  Beta virt. eigenvalues --    3.44253   3.44257   3.50201   3.68590   3.70793
  Beta virt. eigenvalues --    3.73839   3.73846   4.01346   4.01348   4.15630
  Beta virt. eigenvalues --    4.15965   4.15991   4.40840   4.57022   4.57027
  Beta virt. eigenvalues --    4.59772   4.59778   4.78591   4.81539   5.05127
  Beta virt. eigenvalues --    5.05186   5.12841   5.12861   5.18217   5.18230
  Beta virt. eigenvalues --    5.29458   6.07119   6.19008   6.19047   6.41364
  Beta virt. eigenvalues --   15.92940
          Condensed to atoms (all electrons):
               1          2          3          4
     1  C    6.006270   0.347049   0.347045   0.347045
     2  H    0.347049   0.285363   0.009233   0.009218
     3  H    0.347045   0.009233   0.285372   0.009224
     4  H    0.347045   0.009218   0.009224   0.285365
          Atomic-Atomic Spin Densities.
               1          2          3          4
     1  C    0.974236   0.016957   0.016935   0.016916
     2  H    0.016957  -0.028839   0.001787   0.001790
     3  H    0.016935   0.001787  -0.028869   0.001788
     4  H    0.016916   0.001790   0.001788  -0.028874
 Mulliken charges and spin densities:
               1          2
     1  C   -1.047410   1.025044
     2  H    0.349137  -0.008306
     3  H    0.349126  -0.008359
     4  H    0.349147  -0.008380
 Sum of Mulliken charges =  -0.00000   1.00000
 Mulliken charges and spin densities with hydrogens summed into heavy atoms:
               1          2
     1  C   -0.000000   1.000000
 APT charges:
               1
     1  C   -0.135899
     2  H    0.045549
     3  H    0.045126
     4  H    0.045224
 Sum of APT charges =  -0.00000
 APT charges with hydrogens summed into heavy atoms:
               1
     1  C   -0.000000
 Electronic spatial extent (au):  <R**2>=             29.9000
 Charge=              0.0000 electrons
 Dipole moment (field-independent basis, Debye):
    X=              0.0001    Y=             -0.0022    Z=              0.0000  Tot=              0.0022
 Quadrupole moment (field-independent basis, Debye-Ang):
   XX=             -7.1895   YY=             -9.0862   ZZ=             -7.1899
   XY=              0.0032   XZ=              0.0009   YZ=              0.0018
 Traceless Quadrupole moment (field-independent basis, Debye-Ang):
   XX=              0.6324   YY=             -1.2643   ZZ=              0.6320
   XY=              0.0032   XZ=              0.0009   YZ=              0.0018
 Octapole moment (field-independent basis, Debye-Ang**2):
  XXX=             -0.0003  YYY=              0.0057  ZZZ=              0.9196  XYY=             -0.0005
  XXY=             -0.0006  XXZ=             -0.9199  XZZ=             -0.0011  YZZ=              0.0012
  YYZ=             -0.0001  XYZ=             -0.0015
 Hexadecapole moment (field-independent basis, Debye-Ang**3):
 XXXX=            -14.8817 YYYY=            -11.9824 ZZZZ=            -14.8817 XXXY=             -0.0003
 XXXZ=             -0.0003 YYYX=             -0.0046 YYYZ=             -0.0026 ZZZX=              0.0006
 ZZZY=             -0.0016 XXYY=             -4.8993 XXZZ=             -4.9607 YYZZ=             -4.8992
 XXYZ=              0.0014 YYXZ=             -0.0001 ZZXY=             -0.0001
 N-N= 9.684333414232D+00 E-N=-1.112577018909D+02  KE= 3.956926272771D+01
  Exact polarizability:  16.054  -0.001  16.394   0.000  -0.000  16.048
 Approx polarizability:  14.636   0.001  13.748   0.001   0.001  14.635
                          Isotropic Fermi Contact Couplings
        Atom                 a.u.       MegaHertz       Gauss      10(-4) cm-1
     1  C(13)              0.01738      19.53482       6.97051       6.51611
     2  H(1)              -0.01402     -62.67596     -22.36434     -20.90645
     3  H(1)              -0.01402     -62.68920     -22.36906     -20.91087
     4  H(1)              -0.01403     -62.69841     -22.37235     -20.91394
 --------------------------------------------------------
       Center         ----  Spin Dipole Couplings  ----
                      3XX-RR        3YY-RR        3ZZ-RR
 --------------------------------------------------------
     1   Atom       -0.568036      1.136119     -0.568083
     2   Atom       -0.077825      0.002330      0.075495
     3   Atom        0.037224      0.002331     -0.039555
     4   Atom        0.037110      0.002335     -0.039445
 --------------------------------------------------------
                        XY            XZ            YZ
 --------------------------------------------------------
     1   Atom       -0.002861     -0.000008     -0.001652
     2   Atom       -0.000135      0.000001     -0.000010
     3   Atom       -0.000076     -0.066354     -0.000112
     4   Atom        0.000192      0.066423      0.000112
 --------------------------------------------------------


 ---------------------------------------------------------------------------------
              Anisotropic Spin Dipole Couplings in Principal Axis System
 ---------------------------------------------------------------------------------

       Atom             a.u.   MegaHertz   Gauss  10(-4) cm-1        Axes

              Baa    -0.5681   -76.232   -27.201   -25.428  0.2326  0.0013  0.9726
     1 C(13)  Bbb    -0.5680   -76.225   -27.199   -25.426  0.9726  0.0014 -0.2326
              Bcc     1.1361   152.457    54.401    50.854 -0.0017  1.0000 -0.0010
 
              Baa    -0.0778   -41.524   -14.817   -13.851  1.0000  0.0017 -0.0000
     2 H(1)   Bbb     0.0023     1.243     0.444     0.415 -0.0017  1.0000  0.0001
              Bcc     0.0755    40.280    14.373    13.436  0.0000 -0.0001  1.0000
 
              Baa    -0.0778   -41.523   -14.817   -13.851  0.4996  0.0017  0.8662
     3 H(1)   Bbb     0.0023     1.244     0.444     0.415 -0.0007  1.0000 -0.0015
              Bcc     0.0755    40.280    14.373    13.436  0.8663 -0.0001 -0.4996
 
              Baa    -0.0778   -41.527   -14.818   -13.852 -0.5004 -0.0000  0.8658
     4 H(1)   Bbb     0.0023     1.246     0.444     0.415 -0.0026  1.0000 -0.0015
              Bcc     0.0755    40.281    14.373    13.436  0.8658  0.0030  0.5003
 

 ---------------------------------------------------------------------------------

 Calling FoFJK, ICntrl=    100127 FMM=F ISym2X=0 I1Cent= 0 IOpClX= 1 NMat=1 NMatS=1 NMatT=0.
 Full mass-weighted force constant matrix:
 Low frequencies ---  -30.2177   -0.0017   -0.0004    0.0008   35.2787   79.7069
 Low frequencies ---  527.0394 1409.5283 1409.9017
 Diagonal vibrational polarizability:
        0.0511675       7.7277478       0.0511755
 Harmonic frequencies (cm**-1), IR intensities (KM/Mole), Raman scattering
 activities (A**4/AMU), depolarization ratios for plane and unpolarized
 incident light, reduced masses (AMU), force constants (mDyne/A),
 and normal coordinates:
                      1                      2                      3
                      A                      A                      A
 Frequencies --    527.0094              1409.5282              1409.9017
 Red. masses --      1.2356                 1.1019                 1.1019
 Frc consts  --      0.2022                 1.2899                 1.2905
 IR Inten    --   79.76                  2.974                  2.968    
  Atom  AN      X      Y      Z        X      Y      Z        X      Y      Z
     1   6    -0.00   0.14  -0.00    -0.06  -0.00   0.07    -0.07  -0.00  -0.06
     2   1     0.00  -0.57   0.00     0.50   0.00   0.06     0.64   0.00  -0.05
     3   1     0.00  -0.57   0.00    -0.21  -0.00  -0.23     0.35   0.00   0.66
     4   1     0.00  -0.57   0.00     0.39   0.00  -0.70    -0.12   0.00   0.06
                      4                      5                      6
                      A                      A                      A
 Frequencies --   3122.8565              3303.8341              3304.4443
 Red. masses --      1.0078                 1.1185                 1.1186
 Frc consts  --      5.7908                 7.1934                 7.1963
 IR Inten    --  0.3113E-03              4.459                  4.404    
  Atom  AN      X      Y      Z        X      Y      Z        X      Y      Z
     1   6    -0.00   0.00  -0.00    -0.04   0.00   0.09     0.09   0.00   0.04
     2   1    -0.00   0.00   0.58    -0.01  -0.00  -0.75     0.01   0.00  -0.31
     3   1     0.50   0.00  -0.29     0.56   0.00  -0.31    -0.42   0.00   0.26
     4   1    -0.50  -0.00  -0.29    -0.10  -0.00  -0.04    -0.70  -0.00  -0.41

 -------------------
 - Thermochemistry -
 -------------------
 Temperature   298.150 Kelvin.  Pressure   1.00000 Atm.
 Atom     1 has atomic number  6 and mass  12.00000
 Atom     2 has atomic number  1 and mass   1.00783
 Atom     3 has atomic number  1 and mass   1.00783
 Atom     4 has atomic number  1 and mass   1.00783
 Molecular mass:    15.02348 amu.
 Principal axes and moments of inertia in atomic units:
                           1         2         3
     Eigenvalues --     6.27399   6.27731  12.55128
           X            0.78851  -0.61502  -0.00168
           Y            0.00192  -0.00027   1.00000
           Z            0.61502   0.78851  -0.00097
 This molecule is an asymmetric top.
 Rotational symmetry number  1.
 Rotational temperatures (Kelvin)     13.80523    13.79792     6.90080
 Rotational constants (GHZ):         287.65464   287.50234   143.78945
 Zero-point vibrational energy      78221.3 (Joules/Mol)
                                   18.69533 (Kcal/Mol)
 Warning -- explicit consideration of   1 degrees of freedom as
           vibrations may cause significant error
 Vibrational temperatures:    758.25  2027.99  2028.53  4493.09  4753.47
          (Kelvin)           4754.35
 
 Zero-point correction=                           0.029793 (Hartree/Particle)
 Thermal correction to Energy=                    0.032845
 Thermal correction to Enthalpy=                  0.033789
 Thermal correction to Gibbs Free Energy=         0.010013
 Sum of electronic and zero-point Energies=            -39.809383
 Sum of electronic and thermal Energies=               -39.806331
 Sum of electronic and thermal Enthalpies=             -39.805387
 Sum of electronic and thermal Free Energies=          -39.829163
 
                     E (Thermal)             CV                S
                      KCal/Mol        Cal/Mol-Kelvin    Cal/Mol-Kelvin
 Total                   20.610              7.357             50.040
 Electronic               0.000              0.000              1.377
 Translational            0.889              2.981             34.068
 Rotational               0.889              2.981             13.966
 Vibrational             18.833              1.395              0.628
 Vibration     1          0.882              1.190              0.594
                       Q            Log10(Q)             Ln(Q)
 Total Bot       0.247890D-04         -4.605742        -10.605112
 Total V=0       0.125318D+10          9.098015         20.948953
 Vib (Bot)       0.215163D-13        -13.667231        -31.469963
 Vib (Bot)    1  0.304310D+00         -0.516684         -1.189709
 Vib (V=0)       0.108774D+01          0.036525          0.084102
 Vib (V=0)    1  0.108532D+01          0.035559          0.081879
 Electronic      0.200000D+01          0.301030          0.693147
 Translational   0.228882D+07          6.359611         14.643545
 Rotational      0.251680D+03          2.400849          5.528159
 -------------------------------------------------------------------
 Center     Atomic                   Forces (Hartrees/Bohr)
 Number     Number              X              Y              Z
 -------------------------------------------------------------------
      1        6           0.000075745   -0.000049529    0.000038739
      2        1          -0.000038665    0.000016561    0.000052694
      3        1           0.000024576    0.000016719   -0.000057311
      4        1          -0.000061657    0.000016249   -0.000034122
 -------------------------------------------------------------------
 Cartesian Forces:  Max     0.000075745 RMS     0.000044380
 -----------------------------------------------------------------------------------------------
                       Internal Coordinate Forces (Hartree/Bohr or radian)
  Cent   Atom   N1       Length/X         N2         Alpha/Y        N3         Beta/Z          J
 -----------------------------------------------------------------------------------------------
      1  C 
      2  H        1   0.000053(     1)
      3  H        1   0.000050(     2)      2   0.000076(     4)
      4  H        1   0.000070(     3)      2  -0.000003(     5)      3   0.000029(     6)     0
 -----------------------------------------------------------------------------------------------
 Internal  Forces:  Max     0.000076140 RMS     0.000053030

 GradGradGradGradGradGradGradGradGradGradGradGradGradGradGradGradGradGrad
 Berny optimization.
 Search for a local minimum.
 Step number   1 out of a maximum of    2
 All quantities printed in internal units (Hartrees-Bohrs-Radians)
 Second derivative matrix not updated -- analytic derivatives used.
 The second derivative matrix:
                          R1        R2        R3        A2        A3
           R1           0.37178
           R2           0.00004   0.37187
           R3           0.00003   0.00004   0.37198
           A2           0.01584   0.00009  -0.01586   0.18907
           A3           0.01583  -0.01586   0.00008   0.09452   0.18898
           D3           0.00001   0.00006   0.00005  -0.00025  -0.00026
                          D3
           D3           0.00891
 ITU=  0
     Eigenvalues ---    0.00891   0.09359   0.27574   0.37194   0.37280
     Eigenvalues ---    0.37961
 Angle between quadratic step and forces=  67.48 degrees.
 Linear search not attempted -- first point.
 Variable       Old X    -DE/DX   Delta X   Delta X   Delta X     New X
                                 (Linear)    (Quad)   (Total)
    R1        2.03748   0.00005   0.00000   0.00013   0.00013   2.03761
    R2        2.03751   0.00005   0.00000   0.00012   0.00012   2.03763
    R3        2.03742   0.00007   0.00000   0.00021   0.00021   2.03763
    A2        2.09391   0.00008   0.00000   0.00056   0.00056   2.09447
    A3        2.09476  -0.00000   0.00000  -0.00029  -0.00029   2.09447
    D3        3.13823   0.00003   0.00000   0.00326   0.00326   3.14150
         Item               Value     Threshold  Converged?
 Maximum Force            0.000076     0.000450     YES
 RMS     Force            0.000053     0.000300     YES
 Maximum Displacement     0.003262     0.001800     NO 
 RMS     Displacement     0.001361     0.001200     NO 
 Predicted change in Energy=-8.293053D-08
 GradGradGradGradGradGradGradGradGradGradGradGradGradGradGradGradGradGrad

 1\1\GINC-NODE-5-4\Freq\UwB97XD\Aug-CC-pVTZ\C1H3(2)\ADELLALIBERA\23-May
 -2023\1\\#N Geom=AllCheck Guess=TCheck SCRF=Check GenChk UwB97XD/Aug-C
 C-pVTZ Freq\\geom 0\\0,2\C\H,1,R1\H,1,R2,2,A2\H,1,R3,2,A3,3,D3,0\\R1=1
 .07818803\R2=1.0782032\R3=1.0781549\A2=119.97213583\A3=120.02071719\D3
 =179.80755743\\Version=EM64L-G09RevD.01\HF=-39.8391758\S2=0.753964\S2-
 1=0.\S2A=0.750009\RMSD=2.024e-09\RMSF=4.438e-05\ZeroPoint=0.0297929\Th
 ermal=0.0328446\Dipole=0.000035,-0.0008754,0.0000167\DipoleDeriv=0.018
 1474,0.0007724,-0.0000718,0.0007626,-0.4444882,0.0004607,-0.000074,0.0
 004559,0.0186428,0.0442825,-0.0001807,-0.0000213,-0.0001774,0.1489258,
 0.0001051,0.0000723,-0.0000361,-0.0565625,-0.0313251,-0.0001098,0.0432
 121,-0.0000023,0.147758,-0.0002013,0.0429822,-0.0001336,0.0189466,-0.0
 311047,-0.0004819,-0.043119,-0.0005828,0.1478044,-0.0003644,-0.0429806
 ,-0.0002863,0.018973\Polar=16.0540857,-0.0006266,16.3937918,0.0002204,
 -0.0002872,16.0483209\PG=C01 [X(C1H3)]\NImag=0\\0.61991868,0.00100041,
 0.02538608,0.00018279,0.00058409,0.61975487,-0.05488442,-0.00007635,-0
 .00000174,0.04551464,-0.00007781,-0.00859963,0.00004420,0.00007139,0.0
 0307507,0.00001117,-0.00006289,-0.35828526,-0.00002539,0.00004008,0.37
 177893,-0.28258212,-0.00009570,0.13138720,0.00467642,0.00000457,-0.003
 84801,0.29036612,0.00000040,-0.00841103,-0.00008971,0.00000021,0.00277
 217,0.00000588,0.00007052,0.00284803,0.13140774,-0.00003627,-0.1306147
 9,0.02360342,-0.00000284,-0.00675422,-0.14126712,0.00004187,0.12702286
 ,-0.28245214,-0.00082836,-0.13156826,0.00469335,0.00000185,0.00386224,
 -0.01246042,-0.00007113,-0.01374403,0.29021922,-0.00092300,-0.00837542
 ,-0.00053857,0.00000474,0.00275239,0.00001693,0.00002062,0.00279083,-0
 .00000276,0.00089764,0.00283220,-0.13160170,-0.00048493,-0.13085481,-0
 .02357628,-0.00008143,-0.00673945,0.01372792,0.00004197,0.01034615,0.1
 4145006,0.00052440,0.12724811\\-0.00007575,0.00004953,-0.00003874,0.00
 003866,-0.00001656,-0.00005269,-0.00002458,-0.00001672,0.00005731,0.00
 006166,-0.00001625,0.00003412\\\@


 THE WORLD OF CHEMICAL REACTIONS IS LIKE A STAGE,
 ON WHICH SCENE AFTER SCENE IS CEASELESSLY PLAYED.
 THE ACTORS ON IT ARE THE ELEMENTS.
   -- CLEMENS WINKLER   BER. 30,13(1897)
 (DISCOVERER OF GERMANIUM, FEB 6, 1886)
 Job cpu time:       0 days  0 hours  4 minutes  5.6 seconds.
 File lengths (MBytes):  RWF=     66 Int=      0 D2E=      0 Chk=      3 Scr=      1
 Normal termination of Gaussian 09 at Tue May 23 11:49:56 2023.
