 Entering Gaussian System, Link 0=g09
 Input=geom.com
 Output=geom.log
 Initial command:
 /software/cinetica/g09d1/g09d01/d01/build-node-6-2-59348/src/main/l1.exe "/scratch/cc/139118/Gau-140302.inp" -scrdir="/scratch/cc/139118/"
 Entering Link 1 = /software/cinetica/g09d1/g09d01/d01/build-node-6-2-59348/src/main/l1.exe PID=    140303.
  
 Copyright (c) 1988,1990,1992,1993,1995,1998,2003,2009,2013,
            Gaussian, Inc.  All Rights Reserved.
  
 This is part of the Gaussian(R) 09 program.  It is based on
 the Gaussian(R) 03 system (copyright 2003, Gaussian, Inc.),
 the Gaussian(R) 98 system (copyright 1998, Gaussian, Inc.),
 the Gaussian(R) 94 system (copyright 1995, Gaussian, Inc.),
 the Gaussian 92(TM) system (copyright 1992, Gaussian, Inc.),
 the Gaussian 90(TM) system (copyright 1990, Gaussian, Inc.),
 the Gaussian 88(TM) system (copyright 1988, Gaussian, Inc.),
 the Gaussian 86(TM) system (copyright 1986, Carnegie Mellon
 University), and the Gaussian 82(TM) system (copyright 1983,
 Carnegie Mellon University). Gaussian is a federally registered
 trademark of Gaussian, Inc.
  
 This software contains proprietary and confidential information,
 including trade secrets, belonging to Gaussian, Inc.
  
 This software is provided under written license and may be
 used, copied, transmitted, or stored only in accord with that
 written license.
  
 The following legend is applicable only to US Government
 contracts under FAR:
  
                    RESTRICTED RIGHTS LEGEND
  
 Use, reproduction and disclosure by the US Government is
 subject to restrictions as set forth in subparagraphs (a)
 and (c) of the Commercial Computer Software - Restricted
 Rights clause in FAR 52.227-19.
  
 Gaussian, Inc.
 340 Quinnipiac St., Bldg. 40, Wallingford CT 06492
  
  
 ---------------------------------------------------------------
 Warning -- This program may not be used in any manner that
 competes with the business of Gaussian, Inc. or will provide
 assistance to any competitor of Gaussian, Inc.  The licensee
 of this program is prohibited from giving any competitor of
 Gaussian, Inc. access to this program.  By using this program,
 the user acknowledges that Gaussian, Inc. is engaged in the
 business of creating and licensing software in the field of
 computational chemistry and represents and warrants to the
 licensee that it is not a competitor of Gaussian, Inc. and that
 it will not use this program in any manner prohibited above.
 ---------------------------------------------------------------
  

 Cite this work as:
 Gaussian 09, Revision D.01,
 M. J. Frisch, G. W. Trucks, H. B. Schlegel, G. E. Scuseria, 
 M. A. Robb, J. R. Cheeseman, G. Scalmani, V. Barone, B. Mennucci, 
 G. A. Petersson, H. Nakatsuji, M. Caricato, X. Li, H. P. Hratchian, 
 A. F. Izmaylov, J. Bloino, G. Zheng, J. L. Sonnenberg, M. Hada, 
 M. Ehara, K. Toyota, R. Fukuda, J. Hasegawa, M. Ishida, T. Nakajima, 
 Y. Honda, O. Kitao, H. Nakai, T. Vreven, J. A. Montgomery, Jr., 
 J. E. Peralta, F. Ogliaro, M. Bearpark, J. J. Heyd, E. Brothers, 
 K. N. Kudin, V. N. Staroverov, T. Keith, R. Kobayashi, J. Normand, 
 K. Raghavachari, A. Rendell, J. C. Burant, S. S. Iyengar, J. Tomasi, 
 M. Cossi, N. Rega, J. M. Millam, M. Klene, J. E. Knox, J. B. Cross, 
 V. Bakken, C. Adamo, J. Jaramillo, R. Gomperts, R. E. Stratmann, 
 O. Yazyev, A. J. Austin, R. Cammi, C. Pomelli, J. W. Ochterski, 
 R. L. Martin, K. Morokuma, V. G. Zakrzewski, G. A. Voth, 
 P. Salvador, J. J. Dannenberg, S. Dapprich, A. D. Daniels, 
 O. Farkas, J. B. Foresman, J. V. Ortiz, J. Cioslowski, 
 and D. J. Fox, Gaussian, Inc., Wallingford CT, 2013.
 
 ******************************************
 Gaussian 09:  EM64L-G09RevD.01 24-Apr-2013
                27-May-2023 
 ******************************************
 %mem=400MW
 %chk=tmp
 %NProcShared= 32
 Will use up to   32 processors via shared memory.
 ----------------------------------------------------------------------
 # uwb97xd/aug-cc-pvtz opt=(noeig,intern,maxcyc=50) # int=ultrafine nos
 ym freq iop(7/33=1) guess=(mix,always)
 ----------------------------------------------------------------------
 1/6=50,10=7,11=1,14=-1,18=40,26=4,38=1/1,3;
 2/12=2,15=1,17=6,18=5,29=3,40=1/2;
 3/5=16,6=1,7=10,11=2,16=1,25=1,30=1,71=1,74=-58,75=-5,116=2/1,2,3;
 4/13=-1/1;
 5/5=2,38=5/2;
 6/7=2,8=2,9=2,10=2,28=1/1;
 7/29=1,30=1,33=1/1,2,3,16;
 1/6=50,10=7,11=1,14=-1,18=40,26=4/3(2);
 2/15=1,29=3/2;
 99//99;
 2/15=1,29=3/2;
 3/5=16,6=1,7=10,11=2,16=1,25=1,30=1,71=1,74=-58,75=-5,116=2/1,2,3;
 4/13=-1/1;
 5/5=2,38=5/2;
 7/30=1,33=1/1,2,3,16;
 1/6=50,11=1,14=-1,18=40,26=4/3(-5);
 2/15=1,29=3/2;
 6/7=2,8=2,9=2,10=2,19=2,28=1/1;
 99/9=1/99;
 ------
 geom 0
 ------
 Symbolic Z-matrix:
 Charge =  0 Multiplicity = 1
 C1
 H2                   C1   R1
 H3                   C1   R2       H2   A2
 H4                   C1   R3       H2   A3       H3   D3       0
 C21                  C1   BB       H2   ANG1     H3   DH1      0
 H22                  C21  R21      C1   ANG2     H2   DH2      0
 H23                  C21  R22      H22  A22      C1   DH3      0
 H24                  C21  R23      H22  A23      H23  D23      0
       Variables:
  R1                    1.0834                   
  R2                    1.0835                   
  R3                    1.0835                   
  A2                  112.8034                   
  A3                  112.8036                   
  D3                  230.784                    
  R21                   1.0834                   
  R22                   1.0835                   
  R23                   1.0835                   
  A22                 112.8017                   
  A23                 112.8053                   
  D23                 129.2159                   
  ANG2                105.9023                   
  DH3                 115.383                    
  DH2                  60.0096                   
  DH1                 115.3954                   
  ANG1                105.8979                   
       Constants:
  BB                    2.2                      
 

 GradGradGradGradGradGradGradGradGradGradGradGradGradGradGradGradGradGrad
 Berny optimization.
 Initialization pass.
                       ----------------------------
                       !    Initial Parameters    !
                       ! (Angstroms and Degrees)  !
 ----------------------                            ----------------------
 !      Name          Value   Derivative information (Atomic Units)     !
 ------------------------------------------------------------------------
 !       R1          1.0834   estimate D2E/DX2                          !
 !       R2          1.0835   estimate D2E/DX2                          !
 !       R3          1.0835   estimate D2E/DX2                          !
 !       A2        112.8034   estimate D2E/DX2                          !
 !       A3        112.8036   estimate D2E/DX2                          !
 !       D3        230.784    estimate D2E/DX2                          !
 !       R21         1.0834   estimate D2E/DX2                          !
 !       R22         1.0835   estimate D2E/DX2                          !
 !       R23         1.0835   estimate D2E/DX2                          !
 !       A22       112.8017   estimate D2E/DX2                          !
 !       A23       112.8053   estimate D2E/DX2                          !
 !       D23       129.2159   estimate D2E/DX2                          !
 !      ANG2       105.9023   estimate D2E/DX2                          !
 !       DH3       115.383    estimate D2E/DX2                          !
 !       DH2        60.0096   estimate D2E/DX2                          !
 !       DH1       115.3954   estimate D2E/DX2                          !
 !      ANG1       105.8979   estimate D2E/DX2                          !
 !       BB          2.2      Frozen                                    !
 ------------------------------------------------------------------------
 Trust Radius=3.00D-01 FncErr=1.00D-07 GrdErr=1.00D-06
 Number of steps in this run=     50 maximum allowed number of steps=    100.
 GradGradGradGradGradGradGradGradGradGradGradGradGradGradGradGradGradGrad

 ---------------------------------------------------------------------------------------------------
                            Z-MATRIX (ANGSTROMS AND DEGREES)
   CD    Cent   Atom    N1       Length/X        N2       Alpha/Y        N3        Beta/Z          J
 ---------------------------------------------------------------------------------------------------
      1      1  C 
      2      2  H        1   1.083400(     1)
      3      3  H        1   1.083500(     2)      2  112.803(     8)
      4      4  H        1   1.083500(     3)      2  112.804(     9)      3  230.784(    14)      0
      5      5  C        1   2.200000(     4)      2  105.898(    10)      3  115.395(    15)      0
      6      6  H        5   1.083400(     5)      1  105.902(    11)      2   60.010(    16)      0
      7      7  H        5   1.083500(     6)      6  112.802(    12)      1  115.383(    17)      0
      8      8  H        5   1.083500(     7)      6  112.805(    13)      7  129.216(    18)      0
 ---------------------------------------------------------------------------------------------------
                         Z-Matrix orientation:                         
 ---------------------------------------------------------------------
 Center     Atomic      Atomic             Coordinates (Angstroms)
 Number     Number       Type             X           Y           Z
 ---------------------------------------------------------------------
      1          6           0        0.000000    0.000000    0.000000
      2          1           0        0.000000    0.000000    1.083400
      3          1           0        0.998814    0.000000   -0.419932
      4          1           0       -0.631495    0.773848   -0.419936
      5          6           0       -0.907410   -1.911398   -0.602633
      6          1           0       -1.906262   -1.911164   -0.183049
      7          1           0       -0.275773   -2.685165   -0.182764
      8          1           0       -0.907038   -1.911776   -1.686133
 ---------------------------------------------------------------------
                    Distance matrix (angstroms):
                    1          2          3          4          5
     1  C    0.000000
     2  H    1.083400   0.000000
     3  H    1.083500   1.804893   0.000000
     4  H    1.083500   1.804895   1.804646   0.000000
     5  C    2.200000   2.705465   2.705644   2.705559   0.000000
     6  H    2.705530   2.981657   3.485417   2.981684   1.083400
     7  H    2.705470   2.981499   2.981767   3.485335   1.083500
     8  H    2.705670   3.485386   2.981681   2.981904   1.083500
                    6          7          8
     6  H    0.000000
     7  H    1.804875   0.000000
     8  H    1.804912   1.804645   0.000000
 Symmetry turned off by external request.
 Stoichiometry    C2H6
 Framework group  C1[X(C2H6)]
 Deg. of freedom    18
 Full point group                 C1      NOp   1
 Rotational constants (GHZ):     76.9730380     11.4543287     11.4541553
 Standard basis: Aug-CC-pVTZ (5D, 7F)
   230 basis functions,   306 primitive gaussians,   260 cartesian basis functions
     9 alpha electrons        9 beta electrons
       nuclear repulsion energy        36.5628272384 Hartrees.
 NAtoms=    8 NActive=    8 NUniq=    8 SFac= 1.00D+00 NAtFMM=   60 NAOKFM=F Big=F
 Integral buffers will be    131072 words long.
 Raffenetti 2 integral format.
 Two-electron integral symmetry is turned off.
 Nuclear repulsion after empirical dispersion term =       36.5608283149 Hartrees.
 One-electron integrals computed using PRISM.
 NBasis=   230 RedAO= T EigKep=  5.48D-05  NBF=   230
 NBsUse=   230 1.00D-06 EigRej= -1.00D+00 NBFU=   230
 ExpMin= 2.53D-02 ExpMax= 8.24D+03 ExpMxC= 2.81D+02 IAcc=3 IRadAn=         5 AccDes= 0.00D+00
 Harris functional with IExCor= 4639 and IRadAn=       5 diagonalized for initial guess.
 HarFok:  IExCor= 4639 AccDes= 0.00D+00 IRadAn=         5 IDoV= 1 UseB2=F ITyADJ=14
 ICtDFT=  3500011 ScaDFX=  1.000000  1.000000  1.000000  1.000000
 FoFCou: FMM=F IPFlag=           0 FMFlag=      100000 FMFlg1=           0
         NFxFlg=           0 DoJE=T BraDBF=F KetDBF=T FulRan=T
         wScrn=  0.000000 ICntrl=     500 IOpCl=  0 I1Cent=   200000004 NGrid=           0
         NMat0=    1 NMatS0=      1 NMatT0=    0 NMatD0=    1 NMtDS0=    0 NMtDT0=    0
 Symmetry not used in FoFCou.
 Mixing orbitals, IMix= 1 IMixAn=  0 NRI=1 NE=    9 Coef=  7.07106781D-01  7.07106781D-01
 Mixing orbitals, IMix= 1 IMixAn=  0 NRI=1 NE=    9 Coef= -7.07106781D-01  7.07106781D-01
 Initial guess <Sx>= 0.0000 <Sy>= 0.0000 <Sz>= 0.0000 <S**2>= 1.0000 S= 0.6180
 Requested convergence on RMS density matrix=1.00D-08 within 128 cycles.
 Requested convergence on MAX density matrix=1.00D-06.
 Requested convergence on             energy=1.00D-06.
 No special actions if energy rises.
 SCF Done:  E(UwB97XD) =  -79.7494017874     A.U. after   14 cycles
            NFock= 14  Conv=0.21D-08     -V/T= 2.0112
 <Sx>= 0.0000 <Sy>= 0.0000 <Sz>= 0.0000 <S**2>=-0.0000 S=-0.0000
 <L.S>=  0.00000000000    
 Annihilation of the first spin contaminant:
 S**2 before annihilation    -0.0000,   after    -0.0000

 **********************************************************************

            Population analysis using the SCF density.

 **********************************************************************

 Alpha  occ. eigenvalues --  -10.30092 -10.30090  -0.78717  -0.74412  -0.49843
 Alpha  occ. eigenvalues --   -0.49839  -0.47088  -0.47083  -0.34424
 Alpha virt. eigenvalues --    0.03372   0.03679   0.04699   0.04700   0.06893
 Alpha virt. eigenvalues --    0.06894   0.07357   0.10478   0.12559   0.12560
 Alpha virt. eigenvalues --    0.13314   0.14372   0.14372   0.14603   0.16708
 Alpha virt. eigenvalues --    0.20000   0.20001   0.21789   0.21790   0.25424
 Alpha virt. eigenvalues --    0.25425   0.29012   0.30606   0.31523   0.31524
 Alpha virt. eigenvalues --    0.32966   0.34190   0.34475   0.34475   0.36656
 Alpha virt. eigenvalues --    0.36656   0.36942   0.38429   0.38925   0.39180
 Alpha virt. eigenvalues --    0.40018   0.40019   0.40917   0.40918   0.43584
 Alpha virt. eigenvalues --    0.45592   0.45595   0.47017   0.47017   0.47507
 Alpha virt. eigenvalues --    0.47509   0.48695   0.50979   0.50979   0.65487
 Alpha virt. eigenvalues --    0.69072   0.69873   0.71715   0.71718   0.71750
 Alpha virt. eigenvalues --    0.71754   0.76186   0.76187   0.79357   0.79358
 Alpha virt. eigenvalues --    0.79460   0.82752   0.85434   0.86569   0.90960
 Alpha virt. eigenvalues --    0.91356   0.91360   0.91889   0.91890   0.92275
 Alpha virt. eigenvalues --    0.92276   0.93387   0.94418   0.94419   0.96404
 Alpha virt. eigenvalues --    1.00465   1.00467   1.01113   1.07425   1.07426
 Alpha virt. eigenvalues --    1.08493   1.08528   1.08531   1.12257   1.12258
 Alpha virt. eigenvalues --    1.16414   1.17326   1.17329   1.17536   1.17539
 Alpha virt. eigenvalues --    1.18227   1.22128   1.25416   1.25418   1.30512
 Alpha virt. eigenvalues --    1.30512   1.32969   1.40754   1.45747   1.45750
 Alpha virt. eigenvalues --    1.51458   1.51461   1.52722   1.52925   1.53220
 Alpha virt. eigenvalues --    1.53224   1.56758   1.57405   1.58255   1.58867
 Alpha virt. eigenvalues --    1.58870   1.63571   1.64170   1.64177   1.69246
 Alpha virt. eigenvalues --    1.71864   1.71867   1.77070   1.79263   1.79268
 Alpha virt. eigenvalues --    1.82777   1.82782   1.89784   2.00943   2.00945
 Alpha virt. eigenvalues --    2.04711   2.04723   2.10300   2.10303   2.11076
 Alpha virt. eigenvalues --    2.11077   2.13782   2.13883   2.18379   2.51404
 Alpha virt. eigenvalues --    2.82884   2.85037   3.00190   3.02884   3.11719
 Alpha virt. eigenvalues --    3.11720   3.12349   3.12350   3.17757   3.17761
 Alpha virt. eigenvalues --    3.24209   3.24210   3.34131   3.35307   3.35310
 Alpha virt. eigenvalues --    3.36470   3.40462   3.42118   3.43438   3.43440
 Alpha virt. eigenvalues --    3.50744   3.50746   3.57154   3.57158   3.63317
 Alpha virt. eigenvalues --    3.63318   3.72691   3.72698   3.78794   3.78911
 Alpha virt. eigenvalues --    3.81478   3.81484   3.87449   3.90429   3.90435
 Alpha virt. eigenvalues --    3.90976   3.97594   3.97595   4.03639   4.04801
 Alpha virt. eigenvalues --    4.04809   4.23789   4.25958   4.26872   4.26878
 Alpha virt. eigenvalues --    4.28517   4.28521   4.30560   4.53127   4.53130
 Alpha virt. eigenvalues --    4.53778   4.53783   4.58687   4.63321   4.67843
 Alpha virt. eigenvalues --    4.67852   4.68300   4.78199   4.78203   4.90956
 Alpha virt. eigenvalues --    4.94200   4.94211   4.95571   5.01214   5.01231
 Alpha virt. eigenvalues --    5.14480   5.21400   5.21413   5.22710   5.22726
 Alpha virt. eigenvalues --    5.34487   5.36749   5.56621   5.56639   5.70572
 Alpha virt. eigenvalues --    5.70593   5.74254   5.74270   5.80444   5.88138
 Alpha virt. eigenvalues --    6.36129   6.36147   6.37014   6.37029  16.18664
 Alpha virt. eigenvalues --   16.23546
  Beta  occ. eigenvalues --  -10.30092 -10.30090  -0.78717  -0.74412  -0.49843
  Beta  occ. eigenvalues --   -0.49839  -0.47088  -0.47083  -0.34424
  Beta virt. eigenvalues --    0.03372   0.03679   0.04699   0.04700   0.06893
  Beta virt. eigenvalues --    0.06894   0.07357   0.10478   0.12559   0.12560
  Beta virt. eigenvalues --    0.13314   0.14372   0.14372   0.14603   0.16708
  Beta virt. eigenvalues --    0.20000   0.20001   0.21789   0.21790   0.25424
  Beta virt. eigenvalues --    0.25425   0.29012   0.30606   0.31523   0.31524
  Beta virt. eigenvalues --    0.32966   0.34190   0.34475   0.34475   0.36656
  Beta virt. eigenvalues --    0.36656   0.36942   0.38429   0.38925   0.39180
  Beta virt. eigenvalues --    0.40018   0.40019   0.40917   0.40918   0.43584
  Beta virt. eigenvalues --    0.45592   0.45595   0.47017   0.47017   0.47507
  Beta virt. eigenvalues --    0.47509   0.48695   0.50979   0.50979   0.65487
  Beta virt. eigenvalues --    0.69072   0.69873   0.71715   0.71718   0.71750
  Beta virt. eigenvalues --    0.71754   0.76186   0.76187   0.79357   0.79358
  Beta virt. eigenvalues --    0.79460   0.82752   0.85434   0.86569   0.90960
  Beta virt. eigenvalues --    0.91356   0.91360   0.91889   0.91890   0.92275
  Beta virt. eigenvalues --    0.92276   0.93387   0.94418   0.94419   0.96404
  Beta virt. eigenvalues --    1.00465   1.00467   1.01113   1.07425   1.07426
  Beta virt. eigenvalues --    1.08493   1.08528   1.08531   1.12257   1.12258
  Beta virt. eigenvalues --    1.16414   1.17326   1.17329   1.17536   1.17539
  Beta virt. eigenvalues --    1.18227   1.22128   1.25416   1.25418   1.30512
  Beta virt. eigenvalues --    1.30512   1.32969   1.40754   1.45747   1.45750
  Beta virt. eigenvalues --    1.51458   1.51461   1.52722   1.52925   1.53220
  Beta virt. eigenvalues --    1.53224   1.56758   1.57405   1.58255   1.58867
  Beta virt. eigenvalues --    1.58870   1.63571   1.64170   1.64177   1.69246
  Beta virt. eigenvalues --    1.71864   1.71867   1.77070   1.79263   1.79268
  Beta virt. eigenvalues --    1.82777   1.82782   1.89784   2.00943   2.00945
  Beta virt. eigenvalues --    2.04711   2.04723   2.10300   2.10303   2.11076
  Beta virt. eigenvalues --    2.11077   2.13782   2.13883   2.18379   2.51404
  Beta virt. eigenvalues --    2.82884   2.85037   3.00190   3.02884   3.11719
  Beta virt. eigenvalues --    3.11720   3.12349   3.12350   3.17757   3.17761
  Beta virt. eigenvalues --    3.24209   3.24210   3.34131   3.35307   3.35310
  Beta virt. eigenvalues --    3.36470   3.40462   3.42118   3.43438   3.43440
  Beta virt. eigenvalues --    3.50744   3.50746   3.57154   3.57158   3.63317
  Beta virt. eigenvalues --    3.63318   3.72691   3.72698   3.78794   3.78911
  Beta virt. eigenvalues --    3.81478   3.81484   3.87449   3.90429   3.90435
  Beta virt. eigenvalues --    3.90976   3.97594   3.97595   4.03639   4.04801
  Beta virt. eigenvalues --    4.04809   4.23789   4.25958   4.26872   4.26878
  Beta virt. eigenvalues --    4.28517   4.28521   4.30560   4.53127   4.53130
  Beta virt. eigenvalues --    4.53778   4.53783   4.58687   4.63321   4.67843
  Beta virt. eigenvalues --    4.67852   4.68300   4.78199   4.78203   4.90956
  Beta virt. eigenvalues --    4.94200   4.94211   4.95571   5.01214   5.01231
  Beta virt. eigenvalues --    5.14480   5.21400   5.21413   5.22710   5.22726
  Beta virt. eigenvalues --    5.34487   5.36749   5.56621   5.56639   5.70572
  Beta virt. eigenvalues --    5.70593   5.74254   5.74270   5.80444   5.88138
  Beta virt. eigenvalues --    6.36129   6.36147   6.37014   6.37029  16.18664
  Beta virt. eigenvalues --   16.23546
          Condensed to atoms (all electrons):
               1          2          3          4          5          6
     1  C    5.493757   0.372735   0.372673   0.372700   0.279817  -0.001929
     2  H    0.372735   0.309012   0.012327   0.012329  -0.001904   0.000111
     3  H    0.372673   0.012327   0.309029   0.012337  -0.001939   0.000004
     4  H    0.372700   0.012329   0.012337   0.309029  -0.001921   0.000112
     5  C    0.279817  -0.001904  -0.001939  -0.001921   5.493757   0.372699
     6  H   -0.001929   0.000111   0.000004   0.000112   0.372699   0.309005
     7  H   -0.001919   0.000112   0.000111   0.000004   0.372691   0.012328
     8  H   -0.001916   0.000004   0.000111   0.000111   0.372718   0.012328
               7          8
     1  C   -0.001919  -0.001916
     2  H    0.000112   0.000004
     3  H    0.000111   0.000111
     4  H    0.000004   0.000111
     5  C    0.372691   0.372718
     6  H    0.012328   0.012328
     7  H    0.309030   0.012338
     8  H    0.012338   0.309036
          Atomic-Atomic Spin Densities.
               1          2          3          4          5          6
     1  C    0.000000   0.000000   0.000000   0.000000   0.000000  -0.000000
     2  H    0.000000  -0.000000   0.000000   0.000000   0.000000   0.000000
     3  H    0.000000   0.000000  -0.000000   0.000000   0.000000  -0.000000
     4  H    0.000000   0.000000   0.000000  -0.000000   0.000000  -0.000000
     5  C    0.000000   0.000000   0.000000   0.000000  -0.000000  -0.000000
     6  H   -0.000000   0.000000  -0.000000  -0.000000  -0.000000   0.000000
     7  H   -0.000000   0.000000   0.000000  -0.000000  -0.000000  -0.000000
     8  H   -0.000000   0.000000  -0.000000  -0.000000  -0.000000  -0.000000
               7          8
     1  C   -0.000000  -0.000000
     2  H    0.000000   0.000000
     3  H    0.000000  -0.000000
     4  H   -0.000000  -0.000000
     5  C   -0.000000  -0.000000
     6  H   -0.000000  -0.000000
     7  H    0.000000  -0.000000
     8  H   -0.000000   0.000000
 Mulliken charges and spin densities:
               1          2
     1  C   -0.885918   0.000000
     2  H    0.295274   0.000000
     3  H    0.295346  -0.000000
     4  H    0.295299  -0.000000
     5  C   -0.885918  -0.000000
     6  H    0.295342  -0.000000
     7  H    0.295305   0.000000
     8  H    0.295270   0.000000
 Sum of Mulliken charges =  -0.00000   0.00000
 Mulliken charges and spin densities with hydrogens summed into heavy atoms:
               1          2
     1  C    0.000000   0.000000
     5  C   -0.000000  -0.000000
 Electronic spatial extent (au):  <R**2>=            227.7341
 Charge=             -0.0000 electrons
 Dipole moment (field-independent basis, Debye):
    X=              0.0001    Y=             -0.0000    Z=             -0.0000  Tot=              0.0001
 Quadrupole moment (field-independent basis, Debye-Ang):
   XX=            -14.8034   YY=            -14.8287   ZZ=            -14.7987
   XY=             -0.0153   XZ=             -0.0055   YZ=             -0.0102
 Traceless Quadrupole moment (field-independent basis, Debye-Ang):
   XX=              0.0069   YY=             -0.0185   ZZ=              0.0116
   XY=             -0.0153   XZ=             -0.0055   YZ=             -0.0102
 Octapole moment (field-independent basis, Debye-Ang**2):
  XXX=             20.1463  YYY=             42.5162  ZZZ=             13.3794  XYY=              6.7576
  XXY=             14.1613  XXZ=              4.4660  XZZ=              6.7181  YZZ=             14.1491
  YYZ=              4.4866  XYZ=              0.0145
 Hexadecapole moment (field-independent basis, Debye-Ang**3):
 XXXX=            -66.1448 YYYY=           -202.9762 ZZZZ=            -43.9693 XXXY=            -39.0866
 XXXZ=            -14.5929 YYYX=            -44.7561 YYYZ=            -29.7217 ZZZX=            -11.7705
 ZZZY=            -24.7898 XXYY=            -45.6266 XXZZ=            -20.1983 YYZZ=            -42.0121
 XXYZ=            -10.0511 YYXZ=             -4.2894 ZZXY=            -13.3718
 N-N= 3.656082831486D+01 E-N=-2.568223648056D+02  KE= 7.886478145090D+01
                          Isotropic Fermi Contact Couplings
        Atom                 a.u.       MegaHertz       Gauss      10(-4) cm-1
     1  C(13)              0.00000       0.00003       0.00001       0.00001
     2  H(1)              -0.00000      -0.00001      -0.00000      -0.00000
     3  H(1)              -0.00000      -0.00001      -0.00000      -0.00000
     4  H(1)              -0.00000      -0.00001      -0.00000      -0.00000
     5  C(13)             -0.00000      -0.00003      -0.00001      -0.00001
     6  H(1)               0.00000       0.00001       0.00000       0.00000
     7  H(1)               0.00000       0.00001       0.00000       0.00000
     8  H(1)               0.00000       0.00001       0.00000       0.00000
 --------------------------------------------------------
       Center         ----  Spin Dipole Couplings  ----
                      3XX-RR        3YY-RR        3ZZ-RR
 --------------------------------------------------------
     1   Atom       -0.000000      0.000000     -0.000000
     2   Atom       -0.000000     -0.000000      0.000000
     3   Atom        0.000000     -0.000000     -0.000000
     4   Atom       -0.000000      0.000000     -0.000000
     5   Atom        0.000000     -0.000000      0.000000
     6   Atom       -0.000000      0.000000      0.000000
     7   Atom        0.000000     -0.000000      0.000000
     8   Atom        0.000000      0.000000     -0.000000
 --------------------------------------------------------
                        XY            XZ            YZ
 --------------------------------------------------------
     1   Atom        0.000000      0.000000      0.000000
     2   Atom        0.000000      0.000000      0.000000
     3   Atom        0.000000     -0.000000     -0.000000
     4   Atom       -0.000000      0.000000     -0.000000
     5   Atom       -0.000000     -0.000000     -0.000000
     6   Atom       -0.000000      0.000000      0.000000
     7   Atom        0.000000     -0.000000      0.000000
     8   Atom       -0.000000     -0.000000     -0.000000
 --------------------------------------------------------


 ---------------------------------------------------------------------------------
              Anisotropic Spin Dipole Couplings in Principal Axis System
 ---------------------------------------------------------------------------------

       Atom             a.u.   MegaHertz   Gauss  10(-4) cm-1        Axes

              Baa    -0.0000    -0.000    -0.000    -0.000  0.0548 -0.3264  0.9436
     1 C(13)  Bbb    -0.0000    -0.000    -0.000    -0.000  0.9113 -0.3698 -0.1808
              Bcc     0.0000     0.000     0.000     0.000  0.4080  0.8699  0.2772
 
              Baa    -0.0000    -0.000    -0.000    -0.000  0.4034  0.8316 -0.3816
     2 H(1)   Bbb    -0.0000    -0.000    -0.000    -0.000  0.9004 -0.4350  0.0039
              Bcc     0.0000     0.000     0.000     0.000  0.1628  0.3452  0.9243
 
              Baa    -0.0000    -0.000    -0.000    -0.000 -0.1987  0.8357  0.5119
     3 H(1)   Bbb    -0.0000    -0.000    -0.000    -0.000  0.3502 -0.4273  0.8335
              Bcc     0.0000     0.000     0.000     0.000  0.9153  0.3449 -0.2078
 
              Baa    -0.0000    -0.000    -0.000    -0.000  0.7766  0.3757  0.5056
     4 H(1)   Bbb    -0.0000    -0.000    -0.000    -0.000 -0.5466  0.0028  0.8374
              Bcc     0.0000     0.000     0.000     0.000 -0.3132  0.9267 -0.2076
 
              Baa    -0.0000    -0.000    -0.000    -0.000  0.4080  0.8704  0.2757
     5 C(13)  Bbb     0.0000     0.000     0.000     0.000  0.3925 -0.4399  0.8078
              Bcc     0.0000     0.000     0.000     0.000  0.8243 -0.2213 -0.5210
 
              Baa    -0.0000    -0.000    -0.000    -0.000  0.9151  0.3463 -0.2066
     6 H(1)   Bbb     0.0000     0.000     0.000     0.000  0.3503 -0.4289  0.8326
              Bcc     0.0000     0.000     0.000     0.000 -0.1997  0.8343  0.5138
 
              Baa    -0.0000    -0.000    -0.000    -0.000 -0.3139  0.9265 -0.2073
     7 H(1)   Bbb     0.0000     0.000     0.000     0.000 -0.5476  0.0017  0.8368
              Bcc     0.0000     0.000     0.000     0.000  0.7756  0.3762  0.5068
 
              Baa    -0.0000    -0.000    -0.000    -0.000  0.1615  0.3445  0.9248
     8 H(1)   Bbb     0.0000     0.000     0.000     0.000  0.9003 -0.4353  0.0050
              Bcc     0.0000     0.000     0.000     0.000  0.4043  0.8318 -0.3805
 

 ---------------------------------------------------------------------------------

 DipInt: DoE/N= T T RetVal/Mat= T F Init=T NMatP=  1 IDeriv=0 Min/MaxMlt=  1  1
 Entering OneElI...
 Multipole integrals L=1 to 1 MinM= 0 MaxM= 0.
 Requested accuracy = 0.1000D-12
 PrsmSu:  NPrtUS=   1 ThrOK=F IAlg=1 NPAlg=1 LenDen=           0.
 Prism:   IPart=     0 DynPar=F LinDyn=F Incr=          34.
 PRISM was handed   419148067 working-precision words and  3403 shell-pairs
 IPart=  0 NShTot=        3403 NBatch=          42 AvBLen=        81.0
 PrSmSu:  NxtVal=             35.
 Entering OneElI...
 Calculate overlap and kinetic energy integrals
    NBasis = 260  MinDer = 1  MaxDer = 1
 Requested accuracy = 0.1000D-12
 PrsmSu:  NPrtUS=  32 ThrOK=T IAlg=1 NPAlg=1 LenDen=           0.
 Prism:   IPart=     0 DynPar=F LinDyn=F Incr=           1.
 PRISM was handed    13041121 working-precision words and  3403 shell-pairs
 PRISM was handed    13041121 working-precision words and  3403 shell-pairs
 PRISM was handed    13041121 working-precision words and  3403 shell-pairs
 PRISM was handed    13041121 working-precision words and  3403 shell-pairs
 PRISM was handed    13041121 working-precision words and  3403 shell-pairs
 PRISM was handed    13041121 working-precision words and  3403 shell-pairs
 PRISM was handed    13041121 working-precision words and  3403 shell-pairs
 PRISM was handed    13041121 working-precision words and  3403 shell-pairs
 PRISM was handed    13041121 working-precision words and  3403 shell-pairs
 PRISM was handed    13041121 working-precision words and  3403 shell-pairs
 PRISM was handed    13041121 working-precision words and  3403 shell-pairs
 PRISM was handed    13041121 working-precision words and  3403 shell-pairs
 PRISM was handed    13041121 working-precision words and  3403 shell-pairs
 PRISM was handed    13041121 working-precision words and  3403 shell-pairs
 PRISM was handed    13041121 working-precision words and  3403 shell-pairs
 PRISM was handed    13041121 working-precision words and  3403 shell-pairs
 PRISM was handed    13041121 working-precision words and  3403 shell-pairs
 PRISM was handed    13041121 working-precision words and  3403 shell-pairs
 PRISM was handed    13041121 working-precision words and  3403 shell-pairs
 PRISM was handed    13041121 working-precision words and  3403 shell-pairs
 PRISM was handed    13041121 working-precision words and  3403 shell-pairs
 PRISM was handed    13041121 working-precision words and  3403 shell-pairs
 PRISM was handed    13041121 working-precision words and  3403 shell-pairs
 PRISM was handed    13041121 working-precision words and  3403 shell-pairs
 PRISM was handed    13041121 working-precision words and  3403 shell-pairs
 PRISM was handed    13041121 working-precision words and  3403 shell-pairs
 PRISM was handed    13041121 working-precision words and  3403 shell-pairs
 PRISM was handed    13041121 working-precision words and  3403 shell-pairs
 PRISM was handed    13041121 working-precision words and  3403 shell-pairs
 PRISM was handed    13041121 working-precision words and  3403 shell-pairs
 PRISM was handed    13041121 working-precision words and  3403 shell-pairs
 PRISM was handed    13041121 working-precision words and  3403 shell-pairs
 IPart=  0 NShTot=         135 NBatch=          43 AvBLen=         3.1
 IPart= 27 NShTot=          96 NBatch=          20 AvBLen=         4.8
 IPart= 31 NShTot=          96 NBatch=          20 AvBLen=         4.8
 IPart= 19 NShTot=          98 NBatch=          21 AvBLen=         4.7
 IPart= 28 NShTot=          96 NBatch=          20 AvBLen=         4.8
 IPart= 30 NShTot=          96 NBatch=          20 AvBLen=         4.8
 IPart= 29 NShTot=          96 NBatch=          20 AvBLen=         4.8
 IPart= 21 NShTot=          98 NBatch=          21 AvBLen=         4.7
 IPart= 16 NShTot=          98 NBatch=          21 AvBLen=         4.7
 IPart= 18 NShTot=          98 NBatch=          21 AvBLen=         4.7
 IPart= 23 NShTot=          97 NBatch=          21 AvBLen=         4.6
 IPart= 12 NShTot=         105 NBatch=          21 AvBLen=         5.0
 IPart= 10 NShTot=         111 NBatch=          23 AvBLen=         4.8
 IPart=  2 NShTot=         123 NBatch=          31 AvBLen=         4.0
 IPart=  4 NShTot=         120 NBatch=          31 AvBLen=         3.9
 IPart=  6 NShTot=         117 NBatch=          28 AvBLen=         4.2
 IPart= 25 NShTot=          96 NBatch=          20 AvBLen=         4.8
 IPart= 14 NShTot=         105 NBatch=          21 AvBLen=         5.0
 IPart=  1 NShTot=         132 NBatch=          40 AvBLen=         3.3
 IPart=  3 NShTot=         123 NBatch=          31 AvBLen=         4.0
 IPart=  8 NShTot=         113 NBatch=          25 AvBLen=         4.5
 IPart= 13 NShTot=         105 NBatch=          21 AvBLen=         5.0
 IPart=  5 NShTot=         120 NBatch=          31 AvBLen=         3.9
 IPart= 17 NShTot=          98 NBatch=          21 AvBLen=         4.7
 IPart= 20 NShTot=          98 NBatch=          21 AvBLen=         4.7
 IPart= 22 NShTot=          97 NBatch=          21 AvBLen=         4.6
 IPart=  9 NShTot=         112 NBatch=          24 AvBLen=         4.7
 IPart= 15 NShTot=         105 NBatch=          21 AvBLen=         5.0
 IPart= 24 NShTot=          96 NBatch=          20 AvBLen=         4.8
 IPart= 26 NShTot=          96 NBatch=          20 AvBLen=         4.8
 IPart= 11 NShTot=         110 NBatch=          23 AvBLen=         4.8
 IPart=  7 NShTot=         117 NBatch=          28 AvBLen=         4.2
 PrSmSu:  NxtVal=             33.
 Entering OneElI...
 Calculate potential energy integrals
    NBasis = 260  MinDer = 1  MaxDer = 1
 Requested accuracy = 0.1000D-12
 PrsmSu:  NPrtUS=  32 ThrOK=T IAlg=1 NPAlg=1 LenDen=           0.
 Prism:   IPart=     0 DynPar=F LinDyn=F Incr=           8.
 PRISM was handed    13046165 working-precision words and  3393 shell-pairs
 PRISM was handed    13046165 working-precision words and  3393 shell-pairs
 PRISM was handed    13046165 working-precision words and  3393 shell-pairs
 PRISM was handed    13046165 working-precision words and  3393 shell-pairs
 PRISM was handed    13046165 working-precision words and  3393 shell-pairs
 PRISM was handed    13046165 working-precision words and  3393 shell-pairs
 PRISM was handed    13046165 working-precision words and  3393 shell-pairs
 PRISM was handed    13046165 working-precision words and  3393 shell-pairs
 PRISM was handed    13046165 working-precision words and  3393 shell-pairs
 PRISM was handed    13046165 working-precision words and  3393 shell-pairs
 PRISM was handed    13046165 working-precision words and  3393 shell-pairs
 PRISM was handed    13046165 working-precision words and  3393 shell-pairs
 PRISM was handed    13046165 working-precision words and  3393 shell-pairs
 PRISM was handed    13046165 working-precision words and  3393 shell-pairs
 PRISM was handed    13046165 working-precision words and  3393 shell-pairs
 PRISM was handed    13046165 working-precision words and  3393 shell-pairs
 PRISM was handed    13046165 working-precision words and  3393 shell-pairs
 PRISM was handed    13046165 working-precision words and  3393 shell-pairs
 PRISM was handed    13046165 working-precision words and  3393 shell-pairs
 PRISM was handed    13046165 working-precision words and  3393 shell-pairs
 PRISM was handed    13046165 working-precision words and  3393 shell-pairs
 PRISM was handed    13046165 working-precision words and  3393 shell-pairs
 PRISM was handed    13046165 working-precision words and  3393 shell-pairs
 PRISM was handed    13046165 working-precision words and  3393 shell-pairs
 PRISM was handed    13046165 working-precision words and  3393 shell-pairs
 PRISM was handed    13046165 working-precision words and  3393 shell-pairs
 PRISM was handed    13046165 working-precision words and  3393 shell-pairs
 PRISM was handed    13046165 working-precision words and  3393 shell-pairs
 PRISM was handed    13046165 working-precision words and  3393 shell-pairs
 PRISM was handed    13046165 working-precision words and  3393 shell-pairs
 PRISM was handed    13046165 working-precision words and  3393 shell-pairs
 PRISM was handed    13046165 working-precision words and  3393 shell-pairs
 IPart= 18 NShTot=         784 NBatch=          98 AvBLen=         8.0
 IPart= 25 NShTot=         760 NBatch=          95 AvBLen=         8.0
 IPart=  0 NShTot=        1080 NBatch=         135 AvBLen=         8.0
 IPart= 16 NShTot=         808 NBatch=         101 AvBLen=         8.0
 IPart= 29 NShTot=         752 NBatch=          94 AvBLen=         8.0
 IPart= 10 NShTot=         864 NBatch=         108 AvBLen=         8.0
 IPart= 21 NShTot=         776 NBatch=          97 AvBLen=         8.0
 IPart= 12 NShTot=         832 NBatch=         104 AvBLen=         8.0
 IPart=  4 NShTot=         992 NBatch=         124 AvBLen=         8.0
 IPart=  6 NShTot=         936 NBatch=         117 AvBLen=         8.0
 IPart= 23 NShTot=         768 NBatch=          96 AvBLen=         8.0
 IPart= 19 NShTot=         784 NBatch=          98 AvBLen=         8.0
 IPart= 27 NShTot=         752 NBatch=          94 AvBLen=         8.0
 IPart= 30 NShTot=         744 NBatch=          93 AvBLen=         8.0
 IPart= 28 NShTot=         752 NBatch=          94 AvBLen=         8.0
 IPart= 31 NShTot=         744 NBatch=          93 AvBLen=         8.0
 IPart= 13 NShTot=         832 NBatch=         104 AvBLen=         8.0
 IPart=  5 NShTot=         992 NBatch=         124 AvBLen=         8.0
 IPart= 17 NShTot=         808 NBatch=         101 AvBLen=         8.0
 IPart= 20 NShTot=         784 NBatch=          98 AvBLen=         8.0
 IPart=  8 NShTot=         896 NBatch=         112 AvBLen=         8.0
 IPart= 22 NShTot=         768 NBatch=          96 AvBLen=         8.0
 IPart=  9 NShTot=         888 NBatch=         111 AvBLen=         8.0
 IPart= 15 NShTot=         832 NBatch=         104 AvBLen=         8.0
 IPart= 24 NShTot=         760 NBatch=          95 AvBLen=         8.0
 IPart= 26 NShTot=         752 NBatch=          94 AvBLen=         8.0
 IPart= 11 NShTot=         856 NBatch=         107 AvBLen=         8.0
 IPart= 14 NShTot=         832 NBatch=         104 AvBLen=         8.0
 IPart=  7 NShTot=         936 NBatch=         117 AvBLen=         8.0
 IPart=  3 NShTot=        1008 NBatch=         126 AvBLen=         8.0
 IPart=  2 NShTot=        1008 NBatch=         126 AvBLen=         8.0
 IPart=  1 NShTot=        1064 NBatch=         133 AvBLen=         8.0
 PrSmSu:  NxtVal=            257.
 l701 out
 I=    0 X=   2.685842796213D-05 Y=  -1.115771060833D-05 Z=  -4.217216571067D-06
 I=    1 X=   7.432406341109D-01 Y=   1.565048739292D+00 Z=   4.942025043028D-01
 I=    2 X=   8.411144001594D-02 Y=   1.770512234447D-01 Z=   3.209334991311D+00
 I=    3 X=   2.990440527089D+00 Y=   1.767408599506D-01 Z=  -1.166313700367D+00
 I=    4 X=  -1.753748400934D+00 Y=   2.428960577620D+00 Z=  -1.166433310802D+00
 I=    5 X=  -7.441843836774D-01 Y=  -1.564888611711D+00 Z=  -4.932785929861D-01
 I=    6 X=  -2.991109631168D+00 Y=  -1.761017921659D-01 Z=   1.165453167012D+00
 I=    7 X=   1.754187078988D+00 Y=  -2.428743647472D+00 Z=   1.166109172918D+00
 I=    8 X=  -8.293726442391D-02 Y=  -1.780673489586D-01 Z=  -3.209074231388D+00
 ICntrl=      2127.
 Calling FoFJK, ICntrl=      2127 FMM=F ISym2X=0 I1Cent= 0 IOpClX= 1 NMat=1 NMatS=1 NMatT=0.
 FoFJK:  IHMeth= 1 ICntrl=    2127 DoSepK=T KAlg= 0 I1Cent=   0 FoldK=F
 IRaf=         1 NMat=   1 IRICut=       1 DoRegI=T DoRafI=F ISym2E= 0.
 FoFCou: FMM=F IPFlag=           0 FMFlag=      100000 FMFlg1=         800
         NFxFlg=           0 DoJE=F BraDBF=F KetDBF=F FulRan=T
         wScrn=  0.000000 ICntrl=    2527 IOpCl=  0 I1Cent=           0 NGrid=           0
         NMat0=    1 NMatS0=      1 NMatT0=    0 NMatD0=    1 NMtDS0=    0 NMtDT0=    0
 Symmetry not used in FoFCou.
 FoFCou:  KetSym=F NOpSet=  1 NOpAb=1 NOp=  1.
 FoFCou:  CnvScl= 1.00D+00 Thresh= 1.00D-10 IAcrcy=      10.
 PrismS was handed   419077300 working-precision words and  3403 shell-pairs
 FoFCou: LinMIO=F DoNuc=F BraDBF=F KetDBF=F HaveP=T PDBF=F HaveZ=T HaveW=F
         NIJTC =      10 NIJTAt=       0 NIJTCD=       0 NIJTT =      10
         IJTBeg=       1 IJTEnd=      10 KLTBeg=       1 KLTEnd=      10
         IPTBeg=       1 IPTEnd=      10 IPTBCv=       1 IPTECv=      10
         IZTBeg=       1 IZTEnd=      10 IZTBCv=       1 IZTECv=      10
         IWTBeg=      11 IWTEnd=      10 IWTBCv=      11 IWTECv=      10
         INTBeg=       1 INTEnd=       0 IFTBCv=       1 IFTECv=      10
 NCel replicated for PrismC:     1
 CoulSu:  IncDef=  1024 NBBP=        5791906 NTPThr=   100 NPartT=   32 Incr=        1024 LDynOK=F.
 CoulSu:  NPrtUS=  32 ThrOK=T IAlg=1 NPAlg=1 LenDen=           0 LWGrdD=           0 DoCopy=F.
 Enter PrismC: JobTyp=21 DoJE=F Cont=F.
 PrismC:  IPart=     0 DynPar=T LinDyn=F Incr=        1024 UseFst=F UseS4=T IGathr=2.
 PrismC was handed    13042826 working-precision words and  3403 shell-pairs
 Enter PrismC: JobTyp=21 DoJE=F Cont=F.
 Enter PrismC: JobTyp=21 DoJE=F Cont=F.
 Enter PrismC: JobTyp=21 DoJE=F Cont=F.
 Enter PrismC: JobTyp=21 DoJE=F Cont=F.
 Enter PrismC: JobTyp=21 DoJE=F Cont=F.
 Enter PrismC: JobTyp=21 DoJE=F Cont=F.
 Enter PrismC: JobTyp=21 DoJE=F Cont=F.
 Enter PrismC: JobTyp=21 DoJE=F Cont=F.
 Enter PrismC: JobTyp=21 DoJE=F Cont=F.
 Enter PrismC: JobTyp=21 DoJE=F Cont=F.
 Enter PrismC: JobTyp=21 DoJE=F Cont=F.
 Enter PrismC: JobTyp=21 DoJE=F Cont=F.
 Enter PrismC: JobTyp=21 DoJE=F Cont=F.
 Enter PrismC: JobTyp=21 DoJE=F Cont=F.
 PrismC was handed    13042826 working-precision words and  3403 shell-pairs
 Enter PrismC: JobTyp=21 DoJE=F Cont=F.
 PrismC was handed    13042826 working-precision words and  3403 shell-pairs
 Enter PrismC: JobTyp=21 DoJE=F Cont=F.
 PrismC was handed    13042826 working-precision words and  3403 shell-pairs
 Enter PrismC: JobTyp=21 DoJE=F Cont=F.
 PrismC was handed    13042826 working-precision words and  3403 shell-pairs
 Enter PrismC: JobTyp=21 DoJE=F Cont=F.
 PrismC was handed    13042826 working-precision words and  3403 shell-pairs
 Enter PrismC: JobTyp=21 DoJE=F Cont=F.
 PrismC was handed    13042826 working-precision words and  3403 shell-pairs
 Enter PrismC: JobTyp=21 DoJE=F Cont=F.
 PrismC was handed    13042826 working-precision words and  3403 shell-pairs
 Enter PrismC: JobTyp=21 DoJE=F Cont=F.
 PrismC was handed    13042826 working-precision words and  3403 shell-pairs
 Enter PrismC: JobTyp=21 DoJE=F Cont=F.
 PrismC was handed    13042826 working-precision words and  3403 shell-pairs
 Enter PrismC: JobTyp=21 DoJE=F Cont=F.
 PrismC was handed    13042826 working-precision words and  3403 shell-pairs
 Enter PrismC: JobTyp=21 DoJE=F Cont=F.
 PrismC was handed    13042826 working-precision words and  3403 shell-pairs
 Enter PrismC: JobTyp=21 DoJE=F Cont=F.
 PrismC was handed    13042826 working-precision words and  3403 shell-pairs
 Enter PrismC: JobTyp=21 DoJE=F Cont=F.
 PrismC was handed    13042826 working-precision words and  3403 shell-pairs
 Enter PrismC: JobTyp=21 DoJE=F Cont=F.
 PrismC was handed    13042826 working-precision words and  3403 shell-pairs
 Enter PrismC: JobTyp=21 DoJE=F Cont=F.
 PrismC was handed    13042826 working-precision words and  3403 shell-pairs
 Enter PrismC: JobTyp=21 DoJE=F Cont=F.
 PrismC was handed    13042826 working-precision words and  3403 shell-pairs
 Enter PrismC: JobTyp=21 DoJE=F Cont=F.
 PrismC was handed    13042826 working-precision words and  3403 shell-pairs
 Enter PrismC: JobTyp=21 DoJE=F Cont=F.
 PrismC was handed    13042826 working-precision words and  3403 shell-pairs
 PrismC was handed    13042826 working-precision words and  3403 shell-pairs
 PrismC was handed    13042826 working-precision words and  3403 shell-pairs
 PrismC was handed    13042826 working-precision words and  3403 shell-pairs
 PrismC was handed    13042826 working-precision words and  3403 shell-pairs
 PrismC was handed    13042826 working-precision words and  3403 shell-pairs
 PrismC was handed    13042826 working-precision words and  3403 shell-pairs
 PrismC was handed    13042826 working-precision words and  3403 shell-pairs
 PrismC was handed    13042826 working-precision words and  3403 shell-pairs
 PrismC was handed    13042826 working-precision words and  3403 shell-pairs
 PrismC was handed    13042826 working-precision words and  3403 shell-pairs
 PrismC was handed    13042826 working-precision words and  3403 shell-pairs
 PrismC was handed    13042826 working-precision words and  3403 shell-pairs
 PrismC was handed    13042826 working-precision words and  3403 shell-pairs
 IPart=  8 NShTot=      145503 NShNF=      145503 NShFF=           0 NBatch=        1524 AvBLen=        95.5
 IPart= 10 NShTot=      180524 NShNF=      180524 NShFF=           0 NBatch=        1605 AvBLen=       112.5
 IPart= 25 NShTot=      185134 NShNF=      185134 NShFF=           0 NBatch=        1628 AvBLen=       113.7
 IPart= 31 NShTot=      179571 NShNF=      179571 NShFF=           0 NBatch=        1605 AvBLen=       111.9
 IPart= 28 NShTot=      159350 NShNF=      159350 NShFF=           0 NBatch=        1429 AvBLen=       111.5
 IPart=  6 NShTot=      185758 NShNF=      185758 NShFF=           0 NBatch=        1585 AvBLen=       117.2
 IPart= 17 NShTot=      177260 NShNF=      177260 NShFF=           0 NBatch=        1265 AvBLen=       140.1
 IPart=  1 NShTot=      176257 NShNF=      176257 NShFF=           0 NBatch=        1536 AvBLen=       114.8
 IPart= 12 NShTot=      187605 NShNF=      187605 NShFF=           0 NBatch=        1622 AvBLen=       115.7
 IPart= 22 NShTot=      177750 NShNF=      177750 NShFF=           0 NBatch=        1456 AvBLen=       122.1
 IPart=  3 NShTot=      161834 NShNF=      161834 NShFF=           0 NBatch=        1416 AvBLen=       114.3
 IPart= 30 NShTot=      162800 NShNF=      162800 NShFF=           0 NBatch=        1385 AvBLen=       117.5
 IPart= 13 NShTot=      158146 NShNF=      158146 NShFF=           0 NBatch=        1519 AvBLen=       104.1
 IPart= 20 NShTot=      173815 NShNF=      173815 NShFF=           0 NBatch=        1568 AvBLen=       110.9
 IPart=  4 NShTot=      175425 NShNF=      175425 NShFF=           0 NBatch=        1625 AvBLen=       108.0
 IPart= 15 NShTot=      179187 NShNF=      179187 NShFF=           0 NBatch=        1330 AvBLen=       134.7
 IPart=  2 NShTot=      175307 NShNF=      175307 NShFF=           0 NBatch=        1389 AvBLen=       126.2
 IPart= 11 NShTot=      169327 NShNF=      169327 NShFF=           0 NBatch=        1569 AvBLen=       107.9
 IPart=  0 NShTot=      157954 NShNF=      157954 NShFF=           0 NBatch=        1219 AvBLen=       129.6
 IPart= 27 NShTot=      168998 NShNF=      168998 NShFF=           0 NBatch=        1570 AvBLen=       107.6
 IPart= 26 NShTot=      171520 NShNF=      171520 NShFF=           0 NBatch=        1513 AvBLen=       113.4
 IPart= 16 NShTot=      189540 NShNF=      189540 NShFF=           0 NBatch=        1599 AvBLen=       118.5
 IPart= 18 NShTot=      160115 NShNF=      160115 NShFF=           0 NBatch=        1579 AvBLen=       101.4
 IPart= 24 NShTot=      165710 NShNF=      165710 NShFF=           0 NBatch=        1559 AvBLen=       106.3
 IPart= 21 NShTot=      180675 NShNF=      180675 NShFF=           0 NBatch=        1635 AvBLen=       110.5
 IPart= 14 NShTot=      176605 NShNF=      176605 NShFF=           0 NBatch=        1621 AvBLen=       108.9
 IPart= 23 NShTot=      159158 NShNF=      159158 NShFF=           0 NBatch=        1589 AvBLen=       100.2
 IPart=  9 NShTot=      157814 NShNF=      157814 NShFF=           0 NBatch=        1587 AvBLen=        99.4
 IPart= 19 NShTot=      176334 NShNF=      176334 NShFF=           0 NBatch=        1507 AvBLen=       117.0
 IPart= 29 NShTot=      175400 NShNF=      175400 NShFF=           0 NBatch=        1639 AvBLen=       107.0
 IPart=  7 NShTot=      157391 NShNF=      157391 NShFF=           0 NBatch=        1537 AvBLen=       102.4
 IPart=  5 NShTot=      159312 NShNF=      159312 NShFF=           0 NBatch=        1547 AvBLen=       103.0
 CoulSu:  NxtVal=        6347777.
 FoFCou: FMM=F IPFlag=           0 FMFlag=      100000 FMFlg1=         800
         NFxFlg=           0 DoJE=F BraDBF=F KetDBF=F FulRan=T
         wScrn=  0.000000 ICntrl=    2127 IOpCl=  1 I1Cent=           0 NGrid=           0
         NMat0=    1 NMatS0=      0 NMatT0=    1 NMatD0=    1 NMtDS0=    0 NMtDT0=    0
         CW=    0.222036    0.777964
         WU=    0.000000   12.500000
 Symmetry not used in FoFCou.
 FoFCou:  KetSym=F NOpSet=  1 NOpAb=1 NOp=  1.
 FoFCou:  CnvScl= 1.00D+00 Thresh= 1.00D-10 IAcrcy=      10.
 PrismS was handed   419073953 working-precision words and  3403 shell-pairs
 FoFCou: LinMIO=F DoNuc=F BraDBF=F KetDBF=F HaveP=T PDBF=F HaveZ=T HaveW=F
         NIJTC =      10 NIJTAt=       0 NIJTCD=       0 NIJTT =      10
         IJTBeg=       1 IJTEnd=      10 KLTBeg=       1 KLTEnd=      10
         IPTBeg=       1 IPTEnd=      10 IPTBCv=       1 IPTECv=      10
         IZTBeg=       1 IZTEnd=      10 IZTBCv=       1 IZTECv=      10
         IWTBeg=      11 IWTEnd=      10 IWTBCv=      11 IWTECv=      10
         INTBeg=       1 INTEnd=       0 IFTBCv=       1 IFTECv=      10
 NCel replicated for PrismC:     1
 CoulSu:  IncDef=  1024 NBBP=        5791906 NTPThr=   100 NPartT=   32 Incr=        1024 LDynOK=F.
 CoulSu:  NPrtUS=  32 ThrOK=T IAlg=1 NPAlg=1 LenDen=           0 LWGrdD=           0 DoCopy=F.
 Enter PrismC: JobTyp=21 DoJE=F Cont=F.
 Linear combination for Coulomb/exchange, wScrn=  0.000000
 CW=    0.222036    0.777964
 WU=    0.000000   12.500000
 PrismC:  IPart=     0 DynPar=T LinDyn=F Incr=        1024 UseFst=F UseS4=T IGathr=2.
 PrismC was handed    13042721 working-precision words and  3403 shell-pairs
 Enter PrismC: JobTyp=21 DoJE=F Cont=F.
 Enter PrismC: JobTyp=21 DoJE=F Cont=F.
 Enter PrismC: JobTyp=21 DoJE=F Cont=F.
 Linear combination for Coulomb/exchange, wScrn=  0.000000
 CW=    0.222036    0.777964
 WU=    0.000000   12.500000
 Linear combination for Coulomb/exchange, wScrn=  0.000000
 CW=    0.222036    0.777964
 WU=    0.000000   12.500000
 Linear combination for Coulomb/exchange, wScrn=  0.000000
 CW=    0.222036    0.777964
 WU=    0.000000   12.500000
 Enter PrismC: JobTyp=21 DoJE=F Cont=F.
 Linear combination for Coulomb/exchange, wScrn=  0.000000
 CW=    0.222036    0.777964
 WU=    0.000000   12.500000
 Enter PrismC: JobTyp=21 DoJE=F Cont=F.
 Linear combination for Coulomb/exchange, wScrn=  0.000000
 CW=    0.222036    0.777964
 WU=    0.000000   12.500000
 Enter PrismC: JobTyp=21 DoJE=F Cont=F.
 Linear combination for Coulomb/exchange, wScrn=  0.000000
 CW=    0.222036    0.777964
 WU=    0.000000   12.500000
 Enter PrismC: JobTyp=21 DoJE=F Cont=F.
 Linear combination for Coulomb/exchange, wScrn=  0.000000
 CW=    0.222036    0.777964
 WU=    0.000000   12.500000
 Enter PrismC: JobTyp=21 DoJE=F Cont=F.
 Linear combination for Coulomb/exchange, wScrn=  0.000000
 CW=    0.222036    0.777964
 WU=    0.000000   12.500000
 Enter PrismC: JobTyp=21 DoJE=F Cont=F.
 Linear combination for Coulomb/exchange, wScrn=  0.000000
 CW=    0.222036    0.777964
 WU=    0.000000   12.500000
 Enter PrismC: JobTyp=21 DoJE=F Cont=F.
 Linear combination for Coulomb/exchange, wScrn=  0.000000
 CW=    0.222036    0.777964
 WU=    0.000000   12.500000
 PrismC was handed    13042721 working-precision words and  3403 shell-pairs
 Enter PrismC: JobTyp=21 DoJE=F Cont=F.
 Linear combination for Coulomb/exchange, wScrn=  0.000000
 CW=    0.222036    0.777964
 WU=    0.000000   12.500000
 Enter PrismC: JobTyp=21 DoJE=F Cont=F.
 Linear combination for Coulomb/exchange, wScrn=  0.000000
 CW=    0.222036    0.777964
 WU=    0.000000   12.500000
 Enter PrismC: JobTyp=21 DoJE=F Cont=F.
 Linear combination for Coulomb/exchange, wScrn=  0.000000
 CW=    0.222036    0.777964
 WU=    0.000000   12.500000
 Enter PrismC: JobTyp=21 DoJE=F Cont=F.
 Linear combination for Coulomb/exchange, wScrn=  0.000000
 CW=    0.222036    0.777964
 WU=    0.000000   12.500000
 Enter PrismC: JobTyp=21 DoJE=F Cont=F.
 Linear combination for Coulomb/exchange, wScrn=  0.000000
 CW=    0.222036    0.777964
 WU=    0.000000   12.500000
 Enter PrismC: JobTyp=21 DoJE=F Cont=F.
 Linear combination for Coulomb/exchange, wScrn=  0.000000
 CW=    0.222036    0.777964
 WU=    0.000000   12.500000
 Enter PrismC: JobTyp=21 DoJE=F Cont=F.
 Linear combination for Coulomb/exchange, wScrn=  0.000000
 CW=    0.222036    0.777964
 WU=    0.000000   12.500000
 Enter PrismC: JobTyp=21 DoJE=F Cont=F.
 Linear combination for Coulomb/exchange, wScrn=  0.000000
 CW=    0.222036    0.777964
 WU=    0.000000   12.500000
 Enter PrismC: JobTyp=21 DoJE=F Cont=F.
 Linear combination for Coulomb/exchange, wScrn=  0.000000
 CW=    0.222036    0.777964
 WU=    0.000000   12.500000
 Enter PrismC: JobTyp=21 DoJE=F Cont=F.
 Linear combination for Coulomb/exchange, wScrn=  0.000000
 CW=    0.222036    0.777964
 WU=    0.000000   12.500000
 Enter PrismC: JobTyp=21 DoJE=F Cont=F.
 Linear combination for Coulomb/exchange, wScrn=  0.000000
 CW=    0.222036    0.777964
 WU=    0.000000   12.500000
 Enter PrismC: JobTyp=21 DoJE=F Cont=F.
 Linear combination for Coulomb/exchange, wScrn=  0.000000
 CW=    0.222036    0.777964
 WU=    0.000000   12.500000
 Enter PrismC: JobTyp=21 DoJE=F Cont=F.
 Linear combination for Coulomb/exchange, wScrn=  0.000000
 CW=    0.222036    0.777964
 WU=    0.000000   12.500000
 Enter PrismC: JobTyp=21 DoJE=F Cont=F.
 Linear combination for Coulomb/exchange, wScrn=  0.000000
 CW=    0.222036    0.777964
 WU=    0.000000   12.500000
 Enter PrismC: JobTyp=21 DoJE=F Cont=F.
 Linear combination for Coulomb/exchange, wScrn=  0.000000
 CW=    0.222036    0.777964
 WU=    0.000000   12.500000
 PrismC was handed    13042721 working-precision words and  3403 shell-pairs
 PrismC was handed    13042721 working-precision words and  3403 shell-pairs
 PrismC was handed    13042721 working-precision words and  3403 shell-pairs
 PrismC was handed    13042721 working-precision words and  3403 shell-pairs
 Enter PrismC: JobTyp=21 DoJE=F Cont=F.
 Linear combination for Coulomb/exchange, wScrn=  0.000000
 CW=    0.222036    0.777964
 WU=    0.000000   12.500000
 Enter PrismC: JobTyp=21 DoJE=F Cont=F.
 Linear combination for Coulomb/exchange, wScrn=  0.000000
 CW=    0.222036    0.777964
 WU=    0.000000   12.500000
 Enter PrismC: JobTyp=21 DoJE=F Cont=F.
 Linear combination for Coulomb/exchange, wScrn=  0.000000
 CW=    0.222036    0.777964
 WU=    0.000000   12.500000
 Enter PrismC: JobTyp=21 DoJE=F Cont=F.
 Linear combination for Coulomb/exchange, wScrn=  0.000000
 CW=    0.222036    0.777964
 WU=    0.000000   12.500000
 Enter PrismC: JobTyp=21 DoJE=F Cont=F.
 Linear combination for Coulomb/exchange, wScrn=  0.000000
 CW=    0.222036    0.777964
 WU=    0.000000   12.500000
 PrismC was handed    13042721 working-precision words and  3403 shell-pairs
 PrismC was handed    13042721 working-precision words and  3403 shell-pairs
 PrismC was handed    13042721 working-precision words and  3403 shell-pairs
 PrismC was handed    13042721 working-precision words and  3403 shell-pairs
 Enter PrismC: JobTyp=21 DoJE=F Cont=F.
 Linear combination for Coulomb/exchange, wScrn=  0.000000
 CW=    0.222036    0.777964
 WU=    0.000000   12.500000
 PrismC was handed    13042721 working-precision words and  3403 shell-pairs
 PrismC was handed    13042721 working-precision words and  3403 shell-pairs
 PrismC was handed    13042721 working-precision words and  3403 shell-pairs
 PrismC was handed    13042721 working-precision words and  3403 shell-pairs
 PrismC was handed    13042721 working-precision words and  3403 shell-pairs
 PrismC was handed    13042721 working-precision words and  3403 shell-pairs
 PrismC was handed    13042721 working-precision words and  3403 shell-pairs
 PrismC was handed    13042721 working-precision words and  3403 shell-pairs
 PrismC was handed    13042721 working-precision words and  3403 shell-pairs
 PrismC was handed    13042721 working-precision words and  3403 shell-pairs
 PrismC was handed    13042721 working-precision words and  3403 shell-pairs
 PrismC was handed    13042721 working-precision words and  3403 shell-pairs
 PrismC was handed    13042721 working-precision words and  3403 shell-pairs
 PrismC was handed    13042721 working-precision words and  3403 shell-pairs
 PrismC was handed    13042721 working-precision words and  3403 shell-pairs
 PrismC was handed    13042721 working-precision words and  3403 shell-pairs
 PrismC was handed    13042721 working-precision words and  3403 shell-pairs
 PrismC was handed    13042721 working-precision words and  3403 shell-pairs
 PrismC was handed    13042721 working-precision words and  3403 shell-pairs
 PrismC was handed    13042721 working-precision words and  3403 shell-pairs
 PrismC was handed    13042721 working-precision words and  3403 shell-pairs
 PrismC was handed    13042721 working-precision words and  3403 shell-pairs
 IPart= 18 NShTot=      183137 NShNF=      183137 NShFF=           0 NBatch=        1934 AvBLen=        94.7
 IPart= 19 NShTot=      177601 NShNF=      177601 NShFF=           0 NBatch=        1946 AvBLen=        91.3
 IPart= 31 NShTot=      181173 NShNF=      181173 NShFF=           0 NBatch=        1906 AvBLen=        95.1
 IPart= 16 NShTot=      174435 NShNF=      174435 NShFF=           0 NBatch=        1936 AvBLen=        90.1
 IPart= 12 NShTot=      162952 NShNF=      162952 NShFF=           0 NBatch=        1871 AvBLen=        87.1
 IPart=  6 NShTot=      178294 NShNF=      178294 NShFF=           0 NBatch=        1915 AvBLen=        93.1
 IPart=  5 NShTot=      177807 NShNF=      177807 NShFF=           0 NBatch=        1929 AvBLen=        92.2
 IPart= 25 NShTot=      173932 NShNF=      173932 NShFF=           0 NBatch=        1962 AvBLen=        88.7
 IPart=  7 NShTot=      157602 NShNF=      157602 NShFF=           0 NBatch=        1814 AvBLen=        86.9
 IPart= 23 NShTot=      156056 NShNF=      156056 NShFF=           0 NBatch=        1847 AvBLen=        84.5
 IPart= 28 NShTot=      169321 NShNF=      169321 NShFF=           0 NBatch=        1854 AvBLen=        91.3
 IPart=  1 NShTot=      164142 NShNF=      164142 NShFF=           0 NBatch=        1891 AvBLen=        86.8
 IPart=  8 NShTot=      163722 NShNF=      163722 NShFF=           0 NBatch=        1738 AvBLen=        94.2
 IPart= 26 NShTot=      166750 NShNF=      166750 NShFF=           0 NBatch=        1807 AvBLen=        92.3
 IPart= 11 NShTot=      153029 NShNF=      153029 NShFF=           0 NBatch=        1776 AvBLen=        86.2
 IPart= 20 NShTot=      156893 NShNF=      156893 NShFF=           0 NBatch=        1848 AvBLen=        84.9
 IPart= 27 NShTot=      176636 NShNF=      176636 NShFF=           0 NBatch=        1908 AvBLen=        92.6
 IPart= 10 NShTot=      174935 NShNF=      174935 NShFF=           0 NBatch=        1911 AvBLen=        91.5
 IPart=  2 NShTot=      179197 NShNF=      179197 NShFF=           0 NBatch=        1824 AvBLen=        98.2
 IPart= 15 NShTot=      167621 NShNF=      167621 NShFF=           0 NBatch=        1955 AvBLen=        85.7
 IPart= 21 NShTot=      173847 NShNF=      173847 NShFF=           0 NBatch=        1921 AvBLen=        90.5
 IPart= 14 NShTot=      173487 NShNF=      173487 NShFF=           0 NBatch=        1874 AvBLen=        92.6
 IPart= 17 NShTot=      174931 NShNF=      174931 NShFF=           0 NBatch=        1895 AvBLen=        92.3
 IPart= 29 NShTot=      176551 NShNF=      176551 NShFF=           0 NBatch=        1869 AvBLen=        94.5
 IPart= 30 NShTot=      168460 NShNF=      168460 NShFF=           0 NBatch=        1850 AvBLen=        91.1
 IPart= 13 NShTot=      160388 NShNF=      160388 NShFF=           0 NBatch=        1675 AvBLen=        95.8
 IPart=  9 NShTot=      185291 NShNF=      185291 NShFF=           0 NBatch=        1819 AvBLen=       101.9
 IPart=  4 NShTot=      174728 NShNF=      174728 NShFF=           0 NBatch=        1914 AvBLen=        91.3
 IPart= 24 NShTot=      166772 NShNF=      166772 NShFF=           0 NBatch=        1931 AvBLen=        86.4
 IPart=  0 NShTot=      166146 NShNF=      166146 NShFF=           0 NBatch=        1659 AvBLen=       100.1
 IPart=  3 NShTot=      181320 NShNF=      181320 NShFF=           0 NBatch=        1827 AvBLen=        99.2
 IPart= 22 NShTot=      167011 NShNF=      167011 NShFF=           0 NBatch=        1842 AvBLen=        90.7
 CoulSu:  NxtVal=        6347777.
 ReadGW:  IGet=0 IStart=           1 Next=           1 LGW=           0.
 Remaining memory in FofDFT      399.87 Mw
 CkSvGd:  ISavGI=        -1 IRadAn=       5 IRASav=       5 ISavGd=        -1.
 CalDSu:  NPrtUS=  32 ThrOK=T IAlg=1 NPAlg=2 DoDPD=T LenP=       33930 LenD1P=             0.
 IPart=  0 IRanGd=          0 ScrnBf=T ScrnGd=T RCrit=4.00D+00 DoMicB=T.
 IPart= 14         4776 of         5380 points in       6 batches and       32 microbatches, Max-NSigAt=       8 Max-NSgAt2=       8
 IPart=  3         4990 of         5626 points in       6 batches and       19 microbatches, Max-NSigAt=       8 Max-NSgAt2=       8
 IPart= 13         5172 of         5722 points in       7 batches and       25 microbatches, Max-NSigAt=       8 Max-NSgAt2=       8
 IPart= 30         4867 of         5364 points in       6 batches and       31 microbatches, Max-NSigAt=       8 Max-NSgAt2=       8
 IPart=  9         5488 of         6356 points in       8 batches and       39 microbatches, Max-NSigAt=       8 Max-NSgAt2=       8
 IPart= 24         4896 of         5098 points in       5 batches and       22 microbatches, Max-NSigAt=       8 Max-NSgAt2=       8
 IPart= 17         4981 of         5694 points in       6 batches and       32 microbatches, Max-NSigAt=       8 Max-NSgAt2=       8
 IPart=  8         6141 of         7340 points in      10 batches and       53 microbatches, Max-NSigAt=       8 Max-NSgAt2=       8
 IPart= 10         5315 of         6326 points in       7 batches and       26 microbatches, Max-NSigAt=       8 Max-NSgAt2=       8
 IPart=  1         6054 of         7022 points in       9 batches and       53 microbatches, Max-NSigAt=       8 Max-NSgAt2=       8
 IPart= 25         4502 of         4720 points in       4 batches and       14 microbatches, Max-NSigAt=       8 Max-NSgAt2=       8
 IPart= 11         4514 of         4772 points in       5 batches and       23 microbatches, Max-NSigAt=       8 Max-NSgAt2=       8
 IPart= 16         5552 of         6354 points in       7 batches and       28 microbatches, Max-NSigAt=       8 Max-NSgAt2=       8
 IPart= 20         5360 of         5946 points in       8 batches and       42 microbatches, Max-NSigAt=       8 Max-NSgAt2=       8
 IPart= 22         4995 of         5290 points in       6 batches and       30 microbatches, Max-NSigAt=       8 Max-NSgAt2=       8
 IPart= 15         5943 of         6956 points in       9 batches and       44 microbatches, Max-NSigAt=       8 Max-NSgAt2=       8
 IPart= 28         5043 of         5268 points in       5 batches and       13 microbatches, Max-NSigAt=       8 Max-NSgAt2=       8
 IPart= 19         5366 of         6156 points in       7 batches and       37 microbatches, Max-NSigAt=       8 Max-NSgAt2=       8
 IPart=  5         5631 of         6326 points in       7 batches and       40 microbatches, Max-NSigAt=       8 Max-NSgAt2=       8
 IPart= 12         5113 of         5922 points in       8 batches and       47 microbatches, Max-NSigAt=       8 Max-NSgAt2=       8
 IPart= 23         5774 of         6696 points in       9 batches and       41 microbatches, Max-NSigAt=       8 Max-NSgAt2=       8
 IPart=  7         5289 of         5928 points in       6 batches and       26 microbatches, Max-NSigAt=       8 Max-NSgAt2=       8
 IPart= 29         5503 of         5984 points in       6 batches and       28 microbatches, Max-NSigAt=       8 Max-NSgAt2=       8
 IPart= 26         5081 of         5324 points in       5 batches and       28 microbatches, Max-NSigAt=       8 Max-NSgAt2=       8
 IPart= 31         5076 of         5352 points in       5 batches and       25 microbatches, Max-NSigAt=       8 Max-NSgAt2=       8
 IPart=  2         5178 of         5524 points in       6 batches and       36 microbatches, Max-NSigAt=       8 Max-NSgAt2=       8
 IPart=  6         5198 of         5552 points in       6 batches and       36 microbatches, Max-NSigAt=       8 Max-NSgAt2=       8
 IPart= 27         5164 of         5496 points in       5 batches and       22 microbatches, Max-NSigAt=       8 Max-NSgAt2=       8
 IPart= 21         4892 of         5324 points in       6 batches and       31 microbatches, Max-NSigAt=       8 Max-NSgAt2=       8
 IPart=  0         5135 of         5348 points in       5 batches and       20 microbatches, Max-NSigAt=       8 Max-NSgAt2=       8
 IPart= 18         4978 of         5324 points in       5 batches and       27 microbatches, Max-NSigAt=       8 Max-NSgAt2=       8
 IPart=  4         5381 of         5722 points in       6 batches and       39 microbatches, Max-NSigAt=       8 Max-NSgAt2=       8
 Forces at end of L703
 I=    0 X=   2.685842796213D-05 Y=  -1.115771060833D-05 Z=  -4.217216571067D-06
 I=    1 X=   2.860225969698D-02 Y=   6.025976741357D-02 Z=   1.910903384271D-02
 I=    2 X=   1.424827654002D-03 Y=   3.000360589606D-03 Z=   3.424123456162D-04
 I=    3 X=   9.171340078371D-04 Y=   3.027210793328D-03 Z=   1.139292719871D-03
 I=    4 X=   1.767276541424D-03 Y=   2.618698096997D-03 Z=   1.138511714520D-03
 I=    5 X=  -2.869873279165D-02 Y=  -6.025706431672D-02 Z=  -1.897190662365D-02
 I=    6 X=  -8.699417468261D-04 Y=  -3.004312489872D-03 Z=  -1.175617984461D-03
 I=    7 X=  -1.736954304655D-03 Y=  -2.616620264677D-03 Z=  -1.181387185265D-03
 I=    8 X=  -1.405869057104D-03 Y=  -3.028039822237D-03 Z=  -4.003388293334D-04
 FrcOut:
 IF    =    45 IFX   =    69 IFXYZ =    93
 IFFX  =   117 IFFFX =   417 IFLen =    24
 IFFLen=   300 IFFFLn=     0 IEDerv=   417
 LEDerv=  1205 IFroze=  1904 ICStrt=108261
 FCEst1:  Generated internal coordinate force constants:
                1             2             3             4             5 
      1  0.609197D+00
      2 -0.119169D+00  0.414687D+00
      3 -0.376118D-01 -0.792303D-01  0.641081D+00
      4 -0.848553D-01  0.895095D-02 -0.551313D-02  0.623669D-01
      5  0.895091D-02 -0.702408D-01 -0.116170D-01 -0.427194D-02  0.553893D-01
      6  0.000000D+00  0.000000D+00 -0.355866D+00  0.000000D+00  0.000000D+00
      7 -0.317022D+00  0.346656D-02  0.976137D-01  0.149041D-01  0.131708D-03
      8 -0.724126D-02 -0.702075D-01  0.127469D-01  0.339816D-03  0.996382D-03
      9  0.921086D-01  0.824525D-02 -0.123572D+00  0.354496D-01  0.313268D-03
     10 -0.167020D+00  0.115168D+00 -0.518398D-01  0.632475D-02 -0.666135D-02
     11  0.125875D+00 -0.220209D+00  0.836894D-01 -0.686950D-02  0.957576D-02
     12 -0.518463D-01  0.765777D-01 -0.123570D+00 -0.221700D-01  0.276632D-01
     13 -0.471978D-01 -0.543912D-02 -0.170781D-02  0.125951D-02  0.185069D-02
     14 -0.544373D-02 -0.560636D-01 -0.361235D-02  0.185074D-02  0.427929D-02
     15 -0.171073D-02 -0.361543D-02 -0.457587D-01 -0.776657D-02 -0.163595D-01
     16 -0.258581D-02  0.718231D-03  0.161553D-02 -0.187469D-03  0.889986D-04
     17 -0.143663D-01  0.428469D-02  0.804202D-02  0.229746D-03 -0.109069D-03
     18 -0.614776D-02  0.170743D-02  0.384143D-02 -0.446413D-03  0.211929D-03
     19  0.822022D-02 -0.554529D-02  0.521071D-02 -0.296569D-03  0.140792D-03
     20  0.953640D-02 -0.652566D-02  0.633836D-02  0.000000D+00  0.000000D+00
     21  0.520820D-02 -0.368384D-02  0.384200D-02  0.446299D-03 -0.211874D-03
     22  0.126319D-02  0.184928D-02 -0.776749D-02  0.484074D-03 -0.229807D-03
     23  0.185752D-02  0.427532D-02 -0.163572D-01 -0.229885D-03  0.109135D-03
     24  0.000000D+00  0.000000D+00  0.304491D-05  0.000000D+00  0.000000D+00
                6             7             8             9            10 
      6  0.355866D+00
      7  0.000000D+00  0.311678D+00
      8  0.000000D+00 -0.165693D-02  0.553707D-01
      9  0.000000D+00 -0.104820D+00 -0.394102D-02  0.106433D+00
     10  0.000000D+00 -0.697530D-02  0.229205D-01 -0.165908D-01  0.159450D+00
     11  0.000000D+00 -0.265882D-02  0.955907D-02 -0.632404D-02 -0.125882D+00
     12  0.000000D+00  0.558975D-02 -0.168523D-01  0.132953D-01  0.632184D-01
     13  0.000000D+00 -0.258467D-02 -0.143621D-01 -0.614765D-02  0.822045D-02
     14  0.000000D+00  0.717462D-03  0.428133D-02  0.170649D-02 -0.554589D-02
     15  0.000000D+00  0.161624D-02  0.804634D-02  0.384424D-02  0.521227D-02
     16  0.000000D+00  0.726566D-04 -0.889783D-04  0.172814D-03  0.114864D-03
     17  0.000000D+00 -0.890413D-04  0.109044D-03 -0.211786D-03 -0.140767D-03
     18  0.000000D+00  0.173014D-03 -0.211881D-03  0.411516D-03  0.273522D-03
     19  0.000000D+00  0.114940D-03 -0.140760D-03  0.273386D-03  0.181711D-03
     20  0.000000D+00  0.000000D+00  0.000000D+00  0.000000D+00  0.000000D+00
     21  0.000000D+00 -0.172970D-03  0.211826D-03 -0.411411D-03 -0.273452D-03
     22  0.000000D+00 -0.187610D-03  0.229755D-03 -0.446233D-03 -0.296596D-03
     23  0.000000D+00  0.890955D-04 -0.109110D-03  0.211915D-03  0.140853D-03
     24  0.000000D+00  0.000000D+00  0.000000D+00  0.000000D+00  0.000000D+00
               11            12            13            14            15 
     11  0.207599D+00
     12 -0.837044D-01  0.106432D+00
     13  0.953451D-02  0.520815D-02  0.609416D+00
     14 -0.652496D-02 -0.368420D-02 -0.119219D+00  0.414646D+00
     15  0.633900D-02  0.384320D-02 -0.376879D-01 -0.791033D-01  0.640902D+00
     16  0.000000D+00 -0.172814D-03 -0.317186D+00  0.352070D-02  0.975923D-01
     17  0.000000D+00  0.211785D-03 -0.719294D-02 -0.702307D-01  0.127217D-01
     18  0.000000D+00 -0.411515D-03  0.920846D-01  0.822266D-02 -0.123547D+00
     19  0.000000D+00 -0.273385D-03 -0.167080D+00  0.115180D+00 -0.518413D-01
     20  0.000000D+00  0.000000D+00  0.125882D+00 -0.220177D+00  0.836844D-01
     21  0.000000D+00  0.411410D-03 -0.518393D-01  0.765673D-01 -0.123539D+00
     22  0.000000D+00  0.446231D-03 -0.848477D-01  0.894025D-02 -0.541433D-02
     23  0.000000D+00 -0.211914D-03  0.894588D-02 -0.702107D-01 -0.117132D-01
     24  0.000000D+00  0.000000D+00  0.899920D-04 -0.966877D-04 -0.355745D+00
               16            17            18            19            20 
     16  0.311845D+00
     17 -0.171243D-02  0.553842D-01
     18 -0.104796D+00 -0.390966D-02  0.106394D+00
     19 -0.696580D-02  0.229208D-01 -0.165954D-01  0.159499D+00
     20 -0.265685D-02  0.956521D-02 -0.633016D-02 -0.125894D+00  0.207567D+00
     21  0.558288D-02 -0.168538D-01  0.132999D-01  0.632214D-01 -0.836869D-01
     22  0.148932D-01  0.350917D-03  0.354542D-01  0.632609D-02 -0.686766D-02
     23  0.130367D-03  0.996554D-03  0.309795D-03 -0.666099D-02  0.957011D-02
     24  0.507375D-05  0.000000D+00  0.120786D-04  0.450171D-05 -0.570426D-05
               21            22            23            24 
     21  0.106414D+00
     22 -0.221730D-01  0.623654D-01
     23  0.276571D-01 -0.427285D-02  0.553687D-01
     24 -0.172845D-04 -0.993527D-04  0.103478D-03  0.355747D+00
 Quadrupole    = 5.13572838D-03-1.37313104D-02 8.59558204D-03
                -1.14052611D-02-4.09927936D-03-7.61532497D-03
 -------------------------------------------------------------------
 Center     Atomic                   Forces (Hartrees/Bohr)
 Number     Number              X              Y              Z
 -------------------------------------------------------------------
      1        6          -0.028602260   -0.060259767   -0.019109034
      2        1          -0.001424828   -0.003000361   -0.000342412
      3        1          -0.000917134   -0.003027211   -0.001139293
      4        1          -0.001767277   -0.002618698   -0.001138512
      5        6           0.028698733    0.060257064    0.018971907
      6        1           0.000869942    0.003004312    0.001175618
      7        1           0.001736954    0.002616620    0.001181387
      8        1           0.001405869    0.003028040    0.000400339
 -------------------------------------------------------------------
 Cartesian Forces:  Max     0.060259767 RMS     0.020100174
 From PutF, contents of force:
   1   -0.3424123456D-03
   2   -0.4038949452D-03
   3   -0.3990271350D-03
   4    0.2878195750D-02
   5    0.2872277702D-02
   6   -0.5709424419D-02
   7   -0.3461076805D-03
   8   -0.3982494683D-03
   9   -0.4009134719D-03
  10    0.2882194329D-02
  11    0.2878288145D-02
  12    0.5715264091D-02
  13    0.1751460077D-05
  14    0.1533365527D-04
  15   -0.2908078829D-05
  16    0.7592831879D-05
  17   -0.3540689439D-05
  18   -0.7931106058D-01
 -----------------------------------------------------------------------------------------------
                       Internal Coordinate Forces (Hartree/Bohr or radian)
  Cent   Atom   N1       Length/X         N2         Alpha/Y        N3         Beta/Z          J
 -----------------------------------------------------------------------------------------------
      1  C 
      2  H        1  -0.000342(     1)
      3  H        1  -0.000404(     2)      2   0.002878(     8)
      4  H        1  -0.000399(     3)      2   0.002872(     9)      3  -0.005709(    14)     0
      5  C        1  -0.079311(     4)      2  -0.000004(    10)      3   0.000008(    15)     0
      6  H        5  -0.000346(     5)      1   0.000002(    11)      2  -0.000003(    16)     0
      7  H        5  -0.000398(     6)      6   0.002882(    12)      1   0.000015(    17)     0
      8  H        5  -0.000401(     7)      6   0.002878(    13)      7   0.005715(    18)     0
 -----------------------------------------------------------------------------------------------
 Internal  Forces:  Max     0.079311061 RMS     0.018840722
 Force constants in Cartesian coordinates: 
                1             2             3             4             5 
      1  0.609197D+00
      2 -0.119169D+00  0.414687D+00
      3 -0.376118D-01 -0.792303D-01  0.641081D+00
      4 -0.848553D-01  0.895095D-02 -0.551313D-02  0.623669D-01
      5  0.895091D-02 -0.702408D-01 -0.116170D-01 -0.427194D-02  0.553893D-01
      6  0.000000D+00  0.000000D+00 -0.355866D+00  0.000000D+00  0.000000D+00
      7 -0.317022D+00  0.346656D-02  0.976137D-01  0.149041D-01  0.131708D-03
      8 -0.724126D-02 -0.702075D-01  0.127469D-01  0.339816D-03  0.996382D-03
      9  0.921086D-01  0.824525D-02 -0.123572D+00  0.354496D-01  0.313268D-03
     10 -0.167020D+00  0.115168D+00 -0.518398D-01  0.632475D-02 -0.666135D-02
     11  0.125875D+00 -0.220209D+00  0.836894D-01 -0.686950D-02  0.957576D-02
     12 -0.518463D-01  0.765777D-01 -0.123570D+00 -0.221700D-01  0.276632D-01
     13 -0.471978D-01 -0.543912D-02 -0.170781D-02  0.125951D-02  0.185069D-02
     14 -0.544373D-02 -0.560636D-01 -0.361235D-02  0.185074D-02  0.427929D-02
     15 -0.171073D-02 -0.361543D-02 -0.457587D-01 -0.776657D-02 -0.163595D-01
     16 -0.258581D-02  0.718231D-03  0.161553D-02 -0.187469D-03  0.889986D-04
     17 -0.143663D-01  0.428469D-02  0.804202D-02  0.229746D-03 -0.109069D-03
     18 -0.614776D-02  0.170743D-02  0.384143D-02 -0.446413D-03  0.211929D-03
     19  0.822022D-02 -0.554529D-02  0.521071D-02 -0.296569D-03  0.140792D-03
     20  0.953640D-02 -0.652566D-02  0.633836D-02  0.000000D+00  0.000000D+00
     21  0.520820D-02 -0.368384D-02  0.384200D-02  0.446299D-03 -0.211874D-03
     22  0.126319D-02  0.184928D-02 -0.776749D-02  0.484074D-03 -0.229807D-03
     23  0.185752D-02  0.427532D-02 -0.163572D-01 -0.229885D-03  0.109135D-03
     24  0.000000D+00  0.000000D+00  0.304491D-05  0.000000D+00  0.000000D+00
                6             7             8             9            10 
      6  0.355866D+00
      7  0.000000D+00  0.311678D+00
      8  0.000000D+00 -0.165693D-02  0.553707D-01
      9  0.000000D+00 -0.104820D+00 -0.394102D-02  0.106433D+00
     10  0.000000D+00 -0.697530D-02  0.229205D-01 -0.165908D-01  0.159450D+00
     11  0.000000D+00 -0.265882D-02  0.955907D-02 -0.632404D-02 -0.125882D+00
     12  0.000000D+00  0.558975D-02 -0.168523D-01  0.132953D-01  0.632184D-01
     13  0.000000D+00 -0.258467D-02 -0.143621D-01 -0.614765D-02  0.822045D-02
     14  0.000000D+00  0.717462D-03  0.428133D-02  0.170649D-02 -0.554589D-02
     15  0.000000D+00  0.161624D-02  0.804634D-02  0.384424D-02  0.521227D-02
     16  0.000000D+00  0.726566D-04 -0.889783D-04  0.172814D-03  0.114864D-03
     17  0.000000D+00 -0.890413D-04  0.109044D-03 -0.211786D-03 -0.140767D-03
     18  0.000000D+00  0.173014D-03 -0.211881D-03  0.411516D-03  0.273522D-03
     19  0.000000D+00  0.114940D-03 -0.140760D-03  0.273386D-03  0.181711D-03
     20  0.000000D+00  0.000000D+00  0.000000D+00  0.000000D+00  0.000000D+00
     21  0.000000D+00 -0.172970D-03  0.211826D-03 -0.411411D-03 -0.273452D-03
     22  0.000000D+00 -0.187610D-03  0.229755D-03 -0.446233D-03 -0.296596D-03
     23  0.000000D+00  0.890955D-04 -0.109110D-03  0.211915D-03  0.140853D-03
     24  0.000000D+00  0.000000D+00  0.000000D+00  0.000000D+00  0.000000D+00
               11            12            13            14            15 
     11  0.207599D+00
     12 -0.837044D-01  0.106432D+00
     13  0.953451D-02  0.520815D-02  0.609416D+00
     14 -0.652496D-02 -0.368420D-02 -0.119219D+00  0.414646D+00
     15  0.633900D-02  0.384320D-02 -0.376879D-01 -0.791033D-01  0.640902D+00
     16  0.000000D+00 -0.172814D-03 -0.317186D+00  0.352070D-02  0.975923D-01
     17  0.000000D+00  0.211785D-03 -0.719294D-02 -0.702307D-01  0.127217D-01
     18  0.000000D+00 -0.411515D-03  0.920846D-01  0.822266D-02 -0.123547D+00
     19  0.000000D+00 -0.273385D-03 -0.167080D+00  0.115180D+00 -0.518413D-01
     20  0.000000D+00  0.000000D+00  0.125882D+00 -0.220177D+00  0.836844D-01
     21  0.000000D+00  0.411410D-03 -0.518393D-01  0.765673D-01 -0.123539D+00
     22  0.000000D+00  0.446231D-03 -0.848477D-01  0.894025D-02 -0.541433D-02
     23  0.000000D+00 -0.211914D-03  0.894588D-02 -0.702107D-01 -0.117132D-01
     24  0.000000D+00  0.000000D+00  0.899920D-04 -0.966877D-04 -0.355745D+00
               16            17            18            19            20 
     16  0.311845D+00
     17 -0.171243D-02  0.553842D-01
[...]
     7   1     0.26  -0.25   0.17     0.28  -0.26   0.18     0.39  -0.37   0.24
     8   1     0.00   0.01  -0.40     0.00   0.01  -0.42    -0.01  -0.00   0.51
                     16                     17                     18
                      A                      A                      A
 Frequencies --   3252.2668              3253.3999              3253.9477
 Red. masses --      1.1140                 1.1125                 1.1120
 Frc consts  --      6.9424                 6.9377                 6.9369
 IR Inten    --   4.668                  14.73                  18.01    
  Atom  AN      X      Y      Z        X      Y      Z        X      Y      Z
     1   6     0.07  -0.02  -0.03     0.02  -0.03   0.07     0.03   0.00  -0.05
     2   1     0.01  -0.01   0.24     0.01   0.00  -0.61     0.00  -0.00   0.43
     3   1    -0.58   0.01   0.27     0.10  -0.01  -0.03    -0.38   0.00   0.17
     4   1    -0.25   0.26  -0.18    -0.33   0.32  -0.20     0.02  -0.01  -0.00
     5   6    -0.02  -0.01   0.06     0.05  -0.02   0.01     0.06  -0.01  -0.05
     6   1     0.30  -0.01  -0.13    -0.33   0.00   0.16    -0.59   0.01   0.27
     7   1    -0.11   0.10  -0.06    -0.30   0.30  -0.20    -0.16   0.16  -0.12
     8   1     0.00   0.01  -0.48     0.01  -0.01  -0.10     0.01  -0.01   0.39

 -------------------
 - Thermochemistry -
 -------------------
 Temperature   298.150 Kelvin.  Pressure   1.00000 Atm.
 Atom     1 has atomic number  6 and mass  12.00000
 Atom     2 has atomic number  1 and mass   1.00783
 Atom     3 has atomic number  1 and mass   1.00783
 Atom     4 has atomic number  1 and mass   1.00783
 Atom     5 has atomic number  6 and mass  12.00000
 Atom     6 has atomic number  1 and mass   1.00783
 Atom     7 has atomic number  1 and mass   1.00783
 Atom     8 has atomic number  1 and mass   1.00783
 Molecular mass:    30.04695 amu.
 Principal axes and moments of inertia in atomic units:
                           1         2         3
     Eigenvalues --    23.82594 155.43704 155.44795
           X            0.37097  -0.54899   0.74900
           Y            0.89757   0.00508  -0.44084
           Z            0.23821   0.83582   0.49464
 This molecule is an asymmetric top.
 Rotational symmetry number  1.
 Rotational temperatures (Kelvin)      3.63527     0.55723     0.55719
 Rotational constants (GHZ):          75.74692    11.61075    11.60994
    1 imaginary frequencies ignored.
 Zero-point vibrational energy     181716.4 (Joules/Mol)
                                   43.43126 (Kcal/Mol)
 Warning -- explicit consideration of   1 degrees of freedom as
           vibrations may cause significant error
 Vibrational temperatures:    149.45   895.29   897.07  1291.53  1292.17
          (Kelvin)           1579.14  1580.26  2084.02  2085.04  2093.65
                             2094.64  4473.75  4474.46  4678.50  4679.28
                             4680.91  4681.70
 
 Zero-point correction=                           0.069212 (Hartree/Particle)
 Thermal correction to Energy=                    0.073251
 Thermal correction to Enthalpy=                  0.074195
 Thermal correction to Gibbs Free Energy=         0.044839
 Sum of electronic and zero-point Energies=            -79.680936
 Sum of electronic and thermal Energies=               -79.676897
 Sum of electronic and thermal Enthalpies=             -79.675953
 Sum of electronic and thermal Free Energies=          -79.705309
 
                     E (Thermal)             CV                S
                      KCal/Mol        Cal/Mol-Kelvin    Cal/Mol-Kelvin
 Total                   45.965             11.799             61.785
 Electronic               0.000              0.000              0.000
 Translational            0.889              2.981             36.134
 Rotational               0.889              2.981             20.981
 Vibrational             44.188              5.837              4.669
 Vibration     1          0.605              1.946              3.380
                       Q            Log10(Q)             Ln(Q)
 Total Bot       0.237432D-20        -20.624461        -47.489578
 Total V=0       0.162494D+12         11.210837         25.813906
 Vib (Bot)       0.427013D-31        -31.369558        -72.231078
 Vib (Bot)    1  0.197418D+01          0.295388          0.680156
 Vib (V=0)       0.292240D+01          0.465740          1.072406
 Vib (V=0)    1  0.253652D+01          0.404238          0.930792
 Electronic      0.100000D+01          0.000000          0.000000
 Translational   0.647375D+07          6.811156         15.683266
 Rotational      0.858897D+04          3.933941          9.058234
 -------------------------------------------------------------------
 Center     Atomic                   Forces (Hartrees/Bohr)
 Number     Number              X              Y              Z
 -------------------------------------------------------------------
      1        6          -0.028091716   -0.067989768   -0.018270603
      2        1           0.000006261    0.000027110    0.000055920
      3        1           0.000064023   -0.000067937    0.000071474
      4        1          -0.000094924   -0.000018459    0.000077244
      5        6           0.028295054    0.067977380    0.017968567
      6        1          -0.000059244   -0.000023554    0.000005761
      7        1          -0.000025193    0.000008279    0.000115883
      8        1          -0.000094260    0.000086948   -0.000024246
 -------------------------------------------------------------------
 Cartesian Forces:  Max     0.067989768 RMS     0.021880394
 -----------------------------------------------------------------------------------------------
                       Internal Coordinate Forces (Hartree/Bohr or radian)
  Cent   Atom   N1       Length/X         N2         Alpha/Y        N3         Beta/Z          J
 -----------------------------------------------------------------------------------------------
      1  C 
      2  H        1   0.000056(     1)
      3  H        1   0.000029(     2)      2  -0.000187(     8)
      4  H        1   0.000017(     3)      2  -0.000190(     9)      3  -0.000149(    14)     0
      5  C        1  -0.075813(     4)      2   0.000025(    10)      3   0.000029(    15)     0
      6  H        5   0.000056(     5)      1   0.000041(    11)      2  -0.000001(    16)     0
      7  H        5   0.000026(     6)      6  -0.000184(    12)      1   0.000026(    17)     0
      8  H        5   0.000024(     7)      6  -0.000193(    13)      7   0.000162(    18)     0
 -----------------------------------------------------------------------------------------------
 Internal  Forces:  Max     0.075812809 RMS     0.017869566

 GradGradGradGradGradGradGradGradGradGradGradGradGradGradGradGradGradGrad
 Berny optimization.
 Search for a local minimum.
 Step number   1 out of a maximum of    2
 All quantities printed in internal units (Hartrees-Bohrs-Radians)
 Second derivative matrix not updated -- analytic derivatives used.
 The second derivative matrix:
                          R1        R2        R3        A2        A3
           R1           0.36314
           R2           0.00076   0.36300
           R3           0.00076   0.00080   0.36291
           A2           0.01687   0.00437  -0.01249   0.18230
           A3           0.01694  -0.01254   0.00450   0.05473   0.18231
           D3           0.00063  -0.01044  -0.00984   0.05120   0.02076
           R21          0.00019  -0.00035   0.00019  -0.00011  -0.00015
           R22          0.00019   0.00019  -0.00035  -0.00015  -0.00010
           R23         -0.00035   0.00019   0.00019  -0.00035  -0.00035
           A22         -0.00015  -0.00035  -0.00010  -0.00120   0.00237
           A23         -0.00010  -0.00035  -0.00015   0.00074  -0.00119
           D23         -0.00022  -0.00051  -0.00059  -0.00085  -0.00014
           ANG2         0.00022  -0.00041   0.00021  -0.00895   0.00579
           DH3          0.00037  -0.00000  -0.00036   0.00134  -0.00661
           DH2          0.00000  -0.00000  -0.00000   0.00069  -0.00069
           DH1         -0.00002   0.00062  -0.00063  -0.03047   0.03057
           ANG1         0.00074  -0.00035  -0.00036   0.01304   0.01315
           BB           0.00082   0.00081   0.00081  -0.00625  -0.00627
                          D3        R21       R22       R23       A22
           D3           0.11326
           R21          0.00058   0.36322
           R22          0.00023   0.00076   0.36293
           R23          0.00052   0.00076   0.00080   0.36291
           A22         -0.00646   0.01692   0.00437  -0.01253   0.18251
           A23          0.00216   0.01683  -0.01249   0.00447   0.05470
           D23          0.00308  -0.00062   0.01042   0.00982  -0.05126
           ANG2        -0.00935   0.00071  -0.00034  -0.00034   0.01338
           DH3          0.01683   0.00004   0.00053  -0.00065  -0.03065
           DH2         -0.00028  -0.00004   0.00007   0.00011  -0.00117
           DH1         -0.06199  -0.00032   0.00033  -0.00001   0.00610
           ANG1        -0.03879   0.00023   0.00016  -0.00043   0.00569
           BB           0.01376   0.00081   0.00081   0.00082  -0.00625
                          A23       D23      ANG2       DH3       DH2
           A23          0.18208
           D23         -0.02064   0.11287
           ANG2         0.01323   0.03881   0.13178
           DH3          0.03065   0.06211  -0.00013   0.12450
           DH2          0.00080  -0.00016   0.00004  -0.00037   0.00291
           DH1         -0.00129   0.00049   0.02853  -0.01603   0.00092
           ANG1        -0.00866  -0.01945  -0.01706  -0.02858   0.00045
           BB          -0.00626  -0.01373   0.00000   0.00005  -0.00003
                          DH1      ANG1       BB
           DH1          0.12522
           ANG1         0.00022   0.13205
           BB           0.00007   0.00009  -0.01210
 ITU=  0
     Eigenvalues ---    0.00286   0.03359   0.03652   0.08479   0.09184
     Eigenvalues ---    0.12088   0.13902   0.20234   0.22382   0.25439
     Eigenvalues ---    0.26558   0.36313   0.36358   0.36511   0.36532
     Eigenvalues ---    0.36837   0.368771000.00000
 Angle between quadratic step and forces=  27.01 degrees.
 Linear search not attempted -- first point.
 Variable       Old X    -DE/DX   Delta X   Delta X   Delta X     New X
                                 (Linear)    (Quad)   (Total)
    R1        2.04388   0.00006   0.00000   0.00022   0.00022   2.04410
    R2        2.04406   0.00003   0.00000   0.00003   0.00003   2.04409
    R3        2.04407   0.00002   0.00000   0.00001   0.00001   2.04408
    A2        1.99902  -0.00019   0.00000  -0.00058  -0.00058   1.99844
    A3        1.99912  -0.00019   0.00000  -0.00074  -0.00074   1.99838
    D3        3.92590  -0.00015   0.00000  -0.00103  -0.00103   3.92486
   R21        2.04387   0.00006   0.00000   0.00022   0.00022   2.04409
   R22        2.04406   0.00003   0.00000   0.00002   0.00002   2.04408
   R23        2.04407   0.00002   0.00000   0.00002   0.00002   2.04410
   A22        1.99905  -0.00018   0.00000  -0.00055  -0.00055   1.99850
   A23        1.99915  -0.00019   0.00000  -0.00073  -0.00073   1.99843
   D23        2.35712   0.00016   0.00000   0.00120   0.00120   2.35833
   ANG2       1.81146   0.00004   0.00000   0.00008   0.00008   1.81154
   DH3        1.96274   0.00003   0.00000  -0.00025  -0.00025   1.96249
   DH2        1.04690  -0.00000   0.00000  -0.00028  -0.00028   1.04663
   DH1        1.96278   0.00003   0.00000  -0.00027  -0.00027   1.96251
   ANG1       1.81135   0.00002   0.00000   0.00012   0.00012   1.81147
    BB        4.15740  -0.07581   0.00000   0.00000   0.00000   4.15740
         Item               Value     Threshold  Converged?
 Maximum Force            0.000193     0.000450     YES
 RMS     Force            0.000109     0.000300     YES
 Maximum Displacement     0.001204     0.001800     YES
 RMS     Displacement     0.000503     0.001200     YES
 Predicted change in Energy=-4.279734D-07
 Optimization completed.
    -- Stationary point found.
                       ----------------------------
                       !   Optimized Parameters   !
                       ! (Angstroms and Degrees)  !
 ----------------------                            ----------------------
 !      Name          Value   Derivative information (Atomic Units)     !
 ------------------------------------------------------------------------
 !       R1          1.0816   -DE/DX =    0.0001                        !
 !       R2          1.0817   -DE/DX =    0.0                           !
 !       R3          1.0817   -DE/DX =    0.0                           !
 !       A2        114.5356   -DE/DX =   -0.0002                        !
 !       A3        114.5412   -DE/DX =   -0.0002                        !
 !       D3        224.9372   -DE/DX =   -0.0001                        !
 !       R21         1.0816   -DE/DX =    0.0001                        !
 !       R22         1.0817   -DE/DX =    0.0                           !
 !       R23         1.0817   -DE/DX =    0.0                           !
 !       A22       114.537    -DE/DX =   -0.0002                        !
 !       A23       114.5429   -DE/DX =   -0.0002                        !
 !       D23       135.0532   -DE/DX =    0.0002                        !
 !      ANG2       103.7889   -DE/DX =    0.0                           !
 !       DH3       112.4568   -DE/DX =    0.0                           !
 !       DH2        59.9832   -DE/DX =    0.0                           !
 !       DH1       112.4591   -DE/DX =    0.0                           !
 !      ANG1       103.7826   -DE/DX =    0.0                           !
 !       BB          2.2      -DE/DX =   -0.0758                        !
 ------------------------------------------------------------------------
 GradGradGradGradGradGradGradGradGradGradGradGradGradGradGradGradGradGrad


 Test job not archived.
 1\1\GINC-NODE-6-10\Freq\UwB97XD\Aug-CC-pVTZ\C2H6\CAVALLOTTI\27-May-202
 3\1\\#N Geom=AllCheck Guess=TCheck SCRF=Check Test GenChk UwB97XD/Aug-
 CC-pVTZ Freq\\geom 0\\0,1\C\H,1,R1\H,1,R2,2,A2\H,1,R3,2,A3,3,D3,0\C,1,
 BB,2,ANG1,3,DH1,0\H,5,R21,1,ANG2,2,DH2,0\H,5,R22,6,A22,1,DH3,0\H,5,R23
 ,6,A23,7,D23,0\\R1=1.0815754\R2=1.08166939\R3=1.08167723\A2=114.535597
 01\A3=114.5412446\D3=224.93721843\R21=1.08157146\R22=1.08167004\R23=1.
 08167757\A22=114.53697229\A23=114.54292121\D23=135.05322176\ANG2=103.7
 8885648\DH3=112.45680732\DH2=59.98322468\DH1=112.45907122\ANG1=103.782
 59355\BB=2.2\\Version=EM64L-G09RevD.01\HF=-79.7501477\S2=0.\S2-1=0.\S2
 A=0.\RMSD=3.542e-10\RMSF=2.188e-02\ZeroPoint=0.0692121\Thermal=0.07325
 06\Dipole=0.0001505,-0.0000245,-0.0000984\DipoleDeriv=0.0455627,0.0499
 563,0.013419,0.0500035,0.145861,0.0319726,0.0133349,0.0323991,0.033666
 ,0.0425227,-0.0311316,-0.0179503,-0.0309244,-0.019838,-0.0423292,-0.01
 80961,-0.043936,-0.0971886,-0.0869541,-0.0527156,0.0407449,-0.0522375,
 -0.0202862,-0.0105475,0.0410431,-0.0101746,0.0321042,-0.0011572,0.0338
 663,-0.0361746,0.0331763,-0.1057466,0.0209565,-0.0362248,0.0217821,0.0
 314962,0.0453939,0.0498683,0.013426,0.050117,0.1459521,0.0319473,0.013
 3604,0.0322849,0.0337771,-0.0865205,-0.0528236,0.0407066,-0.0522241,-0
 .0203144,-0.0105863,0.0408504,-0.0101712,0.0322241,-0.001284,0.0340834
 ,-0.036311,0.0330933,-0.105726,0.0211099,-0.0360741,0.0216549,0.031522
 6,0.0424365,-0.0311036,-0.0178607,-0.0310041,-0.019902,-0.0425233,-0.0
 181937,-0.0438393,-0.0976016\Polar=32.7216813,9.0287927,50.8292624,2.3
 88997,5.79036,30.5210107\PG=C01 [X(C2H6)]\NImag=1\\0.54136071,-0.17030
 776,0.19963684,-0.04532066,-0.10971371,0.58353846,-0.04737217,0.007814
 37,-0.00085540,0.04351288,0.00780348,-0.03174140,-0.00215947,-0.005435
 23,0.03258522,0.00304199,0.00735138,-0.34719018,-0.00220048,-0.0052545
 8,0.36313551,-0.29460233,0.00992483,0.11576414,0.00383945,0.00064477,-
 0.00273147,0.30634820,0.00128178,-0.03171858,0.00796944,0.00083806,0.0
 0038074,0.00033025,-0.00711423,0.03257744,0.11188903,0.00401609,-0.099
 88306,0.02826353,0.00060426,-0.00782571,-0.12202202,-0.00276089,0.1002
 7167,-0.16904610,0.12696264,-0.07637049,0.00134364,-0.00163821,0.00218
 374,-0.01289873,0.01793260,-0.01312973,0.17689257,0.13560243,-0.157252
 65,0.08744233,-0.00183481,0.00284839,-0.00170378,-0.00224354,0.0028235
 4,-0.00091675,-0.13672176,0.16203951,-0.07639509,0.08190136,-0.0999263
 2,-0.01959052,0.02041002,-0.00785435,0.00866828,-0.00993356,0.00635080
 ,0.08443793,-0.08816562,0.10033425,-0.03142348,0.03196869,0.00846164,-
 0.00066211,-0.00044322,0.00002260,-0.00266891,-0.01287582,-0.00485602,
 0.00441096,0.00696923,0.00315476,0.54210571,0.03196575,0.03273449,0.02
 053351,-0.00044868,-0.00153941,0.00004183,-0.00012283,-0.00151326,-0.0
 0040658,-0.00578843,-0.00860215,-0.00373263,-0.17050930,0.19952463,0.0
 0846316,0.02053355,-0.03917114,-0.00576709,-0.01396303,-0.00045703,0.0
 0093208,0.00539711,0.00153790,0.00315311,0.00448391,0.00154775,-0.0456
 0129,-0.10917125,0.58291934,-0.00266811,-0.00012938,0.00093423,-0.0002
 2929,-0.00015549,-0.00024054,0.00011020,-0.00078665,-0.00046968,0.0001
 0013,-0.00014598,0.00009870,-0.29485739,0.01001638,0.11585772,0.306531
 24,-0.01287567,-0.00152904,0.00539674,0.00022859,0.00104024,-0.0002769
 1,-0.00078685,-0.00403177,-0.00141039,0.00049361,0.00044281,0.00068520
 ,0.00138199,-0.03167415,0.00794501,-0.00716206,0.03254253,-0.00484690,
 -0.00041073,0.00153570,-0.00009071,0.00031824,-0.00007970,-0.00046913,
 -0.00140823,-0.00056204,0.00041421,0.00055407,0.00019009,0.11196797,0.
 00399109,-0.09986056,-0.12211049,-0.00271219,0.10025478,0.00441478,-0.
 00579553,0.00315345,0.00036428,0.00082362,-0.00002613,0.00010131,0.000
 49632,0.00041518,-0.00116723,-0.00206355,-0.00066437,-0.16947974,0.127
 10935,-0.07627599,-0.01282788,0.01787655,-0.01312413,0.17725525,0.0069
 6854,-0.00861155,0.00448978,0.00043737,0.00043756,-0.00036760,-0.00014
 578,0.00044359,0.00055589,-0.00206342,-0.00273579,-0.00132934,0.135737
 40,-0.15715123,0.08720961,-0.00228238,0.00282931,-0.00094441,-0.136852
 03,0.16193956,0.00314638,-0.00372559,0.00154222,0.00028948,0.00016244,
 -0.00008003,0.00009889,0.00068422,0.00019056,-0.00066208,-0.00132630,-
 0.00056265,-0.07626049,0.08164857,-0.09960008,0.00866382,-0.00995503,0
 .00634423,0.08436252,-0.08793147,0.10009329,-0.00066330,-0.00043786,-0
 .00576692,-0.00079668,-0.00159973,-0.00004971,-0.00022920,0.00022793,-
 0.00009029,0.00036477,0.00043798,0.00029032,-0.04742503,0.00777776,-0.
 00076172,0.00384109,0.00084384,0.02825918,0.00133923,-0.00179969,-0.01
 963852,0.04356913,-0.00043856,-0.00151811,-0.01395863,-0.00159966,-0.0
 0401135,-0.00012059,-0.00015638,0.00103829,0.00031838,0.00082298,0.000
 43634,0.00016457,0.00777102,-0.03177894,-0.00243491,0.00064556,0.00038
 006,0.00061217,-0.00159473,0.00284855,0.02044315,-0.00545023,0.0326051
 7,0.00002209,0.00004765,-0.00044569,-0.00004882,-0.00011788,0.00035148
 ,-0.00024077,-0.00027835,-0.00008012,-0.00002669,-0.00036786,-0.000079
 58,0.00311083,0.00709546,-0.34691619,-0.00273377,0.00032756,-0.0078225
 0,0.00215948,-0.00168245,-0.00792755,-0.00224234,-0.00502413,0.3629201
 4\\0.02809172,0.06798977,0.01827060,-0.00000626,-0.00002711,-0.0000559
 2,-0.00006402,0.00006794,-0.00007147,0.00009492,0.00001846,-0.00007724
 ,-0.02829505,-0.06797738,-0.01796857,0.00005924,0.00002355,-0.00000576
 ,0.00002519,-0.00000828,-0.00011588,0.00009426,-0.00008695,0.00002425\
 \\@


 BETTER TO HUNT IN FIELDS, FOR HEALTH UNBOUGHT
 THAN FEE THE DOCTOR FOR A NAUSEOUS DRAUGHT.
 THE WISE, FOR CURE, ON EXERCISE DEPEND;
 GOD NEVER MADE HIS WORK FOR MAN TO MEND.
     -- JOHN DRYDEN (1631-1700)
 Job cpu time:       0 days  0 hours 54 minutes 20.1 seconds.
 File lengths (MBytes):  RWF=    106 Int=      0 D2E=      0 Chk=      7 Scr=      1
 Normal termination of Gaussian 09 at Sat May 27 08:45:29 2023.
