[Molden Format]
[Molpro variables]
_NUMVAR=  1038.000000000000    
_AVOGAD= 0.6022140760000000E+24
_BOLTZ= 0.1380649000000000E-22
_CLIGHTSI=  299792458.0000000    
_JOULE= 0.4359744722207100E-17
_JPCAL=  4.184000000000000    
_PLANCK= 0.6626070150000000E-33
_BOHR= 0.5291772109030000E-10
_ECHARG= 0.1602176634000000E-18
_ENULL= 0.8854187812800001E-11
_MU= 0.1660539066600000E-26
_EMASS= 0.9109383701500001E-30
_AMU2AU=  1822.888486217313    
_CLIGHT=  29979245800.00000    
_EV= 0.3674932217565494E-01
_KJOULE= 0.3808798847133432E-03
_KJOULE/MOL= 0.3808798847133432E-03
_CM= 0.4556335252912009E-05
_CM-1= 0.4556335252912009E-05
_DEB2SI= 0.3335640951981520E-29
_KCAL= 0.1593601437640628E-02
_KCAL/MOL= 0.1593601437640628E-02
_KELVIN= 0.3166811563455608E-05
_HERTZ= 0.1519829846057038E-15
_HZ= 0.1519829846057038E-15
_TOA= 0.5291772109030000    
_TOANG= 0.5291772109030000    
_TORAD= 0.1745329251994330E-01
_TOCM=  219474.6313631965    
_TODEBYE=  2.541746473194078    
_TOE= 0.4803204712570263E-09
_TOEV=  27.21138624598803    
_TOHERTZ=  6579683920501656.    
_TOHZ=  6579683920501656.    
_TOK=  315775.0248040668    
_TOKCAL=  627.5094740630558    
_TOKELVIN=  315775.0248040668    
_TOKJ=  2625.499639479825    
_TOKJOULE=  2625.499639479825    
_TOKG= 0.1660539066600000E-26
_ANG=  1.889726124625770    
_ANGSTROM=  1.889726124625770    
_RPAREF=  0.000000000000000    
_RPADISS=  0.000000000000000    
_IGNORE_UNDEF=  2.000000000000000    
_STRICTCHECK=  0.000000000000000    
!SEWARD=  0.000000000000000    
!MULTI=  0.000000000000000    
!DFMULTI=  0.000000000000000    
_SEW_ONEEL=  0.000000000000000    
_CPPDONE=FALSE
_DKROLL_DONE=  0.000000000000000    
_FNUC_DONE=  0.000000000000000    
_FOCKDONE=  0.000000000000000    
_GRADONE=FALSE
_HESSDONE=FALSE
_INTDONE=TRUE
_SCFDONE=FALSE
_MODUL_BLOCK=FALSE
_MODUL_CUDA=FALSE
_MODUL_SLATER=FALSE
_MODUL_MRCC=TRUE
_MODUL_NBO6=FALSE
_MODUL_NECI=FALSE
_MODUL_AIMS=TRUE
_MODUL_GECCO=FALSE
_ISWINDOWS=FALSE
_MRCC_EXEC=/software/cinetica/mrcc/bin/dmrcc
_FITC_AO_SAVED=FALSE
_FITC_MO_SAVED=FALSE
_SHARED_FS=TRUE
_LSTYP=SEWARD
_INTYP=INTS
_GEOMTYP=ZMAT
_GRADTYP=ALASKA
_DIRECT=FALSE
_DKHO= -1.000000000000000    
_FNUC=  0.000000000000000    
_SYNCM=  0.000000000000000    
_BASIS=CC-PVDZ
_ZORIENT=  1.000000000000000    
!ZORIENT=  0.000000000000000    
_NELEC=  10.00000000000000    
!SPIN=  0.000000000000000    
_QSDSTEP=  0.000000000000000    
_QSDIRC=  0.000000000000000    
_PROGRAM=RS2
_CPUSTEP= 0.8000000000000007E-01
_SYSSTEP= 0.2000000000000002E-01
_WALLSTEP= 0.1800000000000000    
!DFMP2=  0.000000000000000    
!DFHFENERG=  0.000000000000000    
!SCSGRD=  0.000000000000000    
_CPUTOT= 0.7000000000000000    
_DMX= 0.3776662571241315E-04
_DMY= 0.4627902786996044E-04
_DMZ=-0.2764757555116226E-01
_EMP2= -40.19392135358107    
_ENERGR= -40.05973353914050    
_ENERGU= -40.18563250526156    
_ENERGY= -40.19392135358107    
_ENERGY_METHOD=RS2
_ENERGY_BASIS=cc-pVDZ
_GEOMETRY_METHOD=
_GEOMETRY_BASIS=
_ENERGY_AVRG= -40.05973353914050    
_ENUC=  10.98771849513690    
_GRADMETHOD=  9.000000000000000    
_NMRMETHOD=  0.000000000000000    
_NMRMAGNET=  0.000000000000000    
!GRID_FREEZE= -1.000000000000000    
!NEESE_INDEX=  0.000000000000000    
_ITERATIONS=  4.000000000000000    
_LASTNELEC=  2.000000000000000    
_LASTSPIN=  0.000000000000000    
_LASTSYM=  1.000000000000000    
_MPP_PROG=  1.000000000000000    
_MSNSTATES=  0.000000000000000    
_RS2PHASE=  0.000000000000000    
_IPROC_MPP=  0.000000000000000    
_IPROC_MPPX=  0.000000000000000    
_NPROC_MPP=  4.000000000000000    
_NPROC_MPPX=  4.000000000000000    
_NPROC_SMP=  1.000000000000000    
_NUMSTEP=  0.000000000000000    
_ORBITAL=  2140.200000000000    
_PI=  3.141592653589793    
!MCACT=  2.000000000000000    
!MCCLOSED=  4.000000000000000    
!MCFREEZE=  0.000000000000000    
!MCMS2=  0.000000000000000    
!MCNEL=  2.000000000000000    
!MCNSTSYM=  1.000000000000000    
!MCSTATE=  1.000000000000000    
!MCSYM=  1.000000000000000    
!MCWEIGHT=  1.000000000000000    
_SEIG_MIN= 0.1503901672313917E-01
_SEWPROP=TRUE
_STATUS=  1.000000000000000    
_SYSTOT= 0.3300000000000000    
_VERSION=  2022002.000000000    
_WALLTOT=  1.550000000000000    
_DATE=03-Jun-23
_LASTORB=MCSCF
_OUTPUT=/home/chimica2/cavallotti/qm/barrierless/vrc_autom/folders/ch3+h/dist_3.6/molpro.out
_PGROUP=C1
_TIME=09:00:11
_LIBMOL=/software/cinetica/molpro_2022.2/lib/
_VIGRDC=  0.000000000000000    
!VIBCNT=  0.000000000000000    
!RGHFCNT=  0.000000000000000    
!SURFREC=  0.000000000000000    
!XSURFREC=  0.000000000000000    
!XPOLYREC=  0.000000000000000    
!ROTREC=  0.000000000000000    
!POLYREC=  0.000000000000000    
!DIPREC=  0.000000000000000    
!DIP4DREC=  0.000000000000000    
!DIPROT=  0.000000000000000    
!DIP4DROT=  0.000000000000000    
!PTREC=  0.000000000000000    
!PT4DREC=  0.000000000000000    
!VSCFREC=  0.000000000000000    
!VCIREC=  0.000000000000000    
!PVCIREC=  0.000000000000000    
!VMP2REC=  0.000000000000000    
!VMCSCFREC=  0.000000000000000    
!VMRCIREC=  0.000000000000000    
!VIBSTATEREC=  0.000000000000000    
!VIBSTATECNT=  0.000000000000000    
!VIBINFO=  0.000000000000000    
!GAREC=  0.000000000000000    
!MCORB=  21402.00000000000    
!DEFCORE=  1.000000000000000    
!SCORE=  0.000000000000000    
!NEWMOL= -1.000000000000000    
!NEWSYM= -1.000000000000000    
_SLFILES=slscratch
_NGSSTO=  9.000000000000000    
_SIN=SIN
_COS=COS
_TAN=TAN
_ACOS=ACOS
_ASIN=ASIN
_ATAN=ATAN
_COSH=COSH
_SINH=SINH
_TANH=TANH
_ABS=ABS
_MOD=MOD
_ERF=ERF
_REFC=REFC
_ERFC=ERFC
_HYPOT=HYPOT
_J0=J0
_J1=J1
_JN=JN
_GAMMA=GAMMA
_LGAMMA=LGAMMA
_Y0=Y0
_Y1=Y1
_YN=YN
_EXP=EXP
_LOG=LOG
_LOG10=LOG10
_SQRT=SQRT
_INT=INT
_NINT=NINT
_MAX=MAX
_MIN=MIN
_COSMO=  0.000000000000000    
_COSMOIT=  0.000000000000000    
_COSMOES=  0.000000000000000    
_COSMOEDS=  0.000000000000000    
_COSMOEC=  0.000000000000000    
_COSMOEDCORR=  0.000000000000000    
_FEPSI=  1.000000000000000    
_SL_IsMM=  0.000000000000000    
_SL_NSYM=  1.000000000000000    
_SL_System_BitSw=  0.000000000000000    
_SL_Unique_atoms=  0.000000000000000    
_SL_GRAD=  0.000000000000000    
_SL_MAXUPD_Hess=  5.000000000000000    
_SL_N_PRINT_COD=  5.000000000000000    
_SL_PRINT_CODES=  0.000000000000000    
_SL_BasType=  0.000000000000000    
_SL_Energy_Pred=  0.000000000000000    
_SL_New_Coords=  0.000000000000000    
_SL_Total_Nuclea=  0.000000000000000    
_SL_Highest_Mltp=  0.000000000000000    
_SL_Ref_Geom=  0.000000000000000    
_SL_Symmetry_ope=  1.000000000000000    
_SL_agrad=  0.000000000000000    
_SL_GrdMax=  0.000000000000000    
_SL_GrdNorm=  0.000000000000000    
_SL_GrdRMS=  0.000000000000000    
_SL_Hss_Q=  0.000000000000000    
_SL_Hss_X=  0.000000000000000    
_SL_BMxOld=  0.000000000000000    
_SL_KtB=  0.000000000000000    
_SL_TROld=  0.000000000000000    
_SL_No_of_Intern=  0.000000000000000    
_SL_Hess=  0.000000000000000    
_SL_K=  0.000000000000000    
!LATTICE= -1.000000000000000    
!NEWLATTICE=  0.000000000000000    
!LATGRAD_VAR=FALSE
!SEW_LATTICE=  1.000000000000000    
!AIC_ONEEL=  0.000000000000000    
!LOCAL=  0.000000000000000    
!SAVEDOM= -1.000000000000000    
!RESTDOM= -1.000000000000000    
!SAVEDOM_HF= -1.000000000000000    
!RESTDOM_HF= -1.000000000000000    
!HESSREC=  0.000000000000000    
!FREQREC=  0.000000000000000    
!NMODREC=  0.000000000000000    
!GTASKS=  0.000000000000000    
!HTASKS=  0.000000000000000    
!SAVEDOM_EOM= -1.000000000000000    
!RESTDOM_EOM= -1.000000000000000    
!GRADSTATE= -1.000000000000000    
!DEBUG=  0.000000000000000    
!CFIT_CPHF=  0.000000000000000    
!RDOMAUX_CPHF=  0.000000000000000    
!THRAO_CPHF= 0.1000000000000000E-11
!THRMO_CPHF= 0.1000000000000000E-11
!THROV_CPHF= 0.1000000000000000E-11
!THRSW_CPHF= 0.1000000000000000E-11
!THRPROD_CPHF= 0.1000000000000000E-11
!THRAOPR_CPHF= 0.1000000000000000E-11
!CFIT_SCFGRD=  0.000000000000000    
!RDOMAUX_SCFGRD=  0.000000000000000    
!THRAO_SCFGRD= 0.1000000000000000E-11
!THRMO_SCFGRD= 0.1000000000000000E-11
!THROV_SCFGRD= 0.1000000000000000E-11
!THRSW_SCFGRD= 0.1000000000000000E-11
!THRPROD_SCFGRD= 0.1000000000000000E-11
!THRAOPR_SCFGRD= 0.1000000000000000E-11
!LOCFIT_SCF=  0.000000000000000    
!LOCFIT_MP2=  0.000000000000000    
_RIDOM=  0.000000000000000    
!CC2_METHOD=  0.000000000000000    
_BASIS2006=FALSE
_SVDDEL= -1.000000000000000    
_SVDDELA= -1.000000000000000    
_SVDDELP= -1.000000000000000    
_SVDDELF= -1.000000000000000    
_SVDDELS= -1.000000000000000    
_SVDDEL_ABS= -1.000000000000000    
_SVDDELA_ABS= -1.000000000000000    
_SVDDELP_ABS= -1.000000000000000    
_SVDDELF_ABS= -1.000000000000000    
_SVDDELS_ABS= -1.000000000000000    
_MAXBASIS=  0.000000000000000    
!OPT_CONICAL=  0.000000000000000    
!CLEARSP_JGRID=  0.000000000000000    
_GRDHYBR=  0.000000000000000    
_STATEGRAD=  1.000000000000000    
_4EXT_NDISKS=  1.000000000000000    
!EMBEDFLAG=  1.000000000000000    
!EMBED=FALSE
!EMBED_F12=FALSE
!EMBEDNUC=  0.000000000000000    
_EMBEDENERGY=  0.000000000000000    
!EMBED_DFC=FALSE
!NUM_VOIDS=  0.000000000000000    
_IBODY=  0.000000000000000    
_EMBE_CORR=  0.000000000000000    
!EMBED_PROJ=FALSE
!EMB_PROJ_ZMU=  1000000.000000000    
!CORRECTION_HF=  0.000000000000000    
!EMBED_AORB=  0.000000000000000    
!EMBED_NACORR=  0.000000000000000    
!EMBED_MP2=FALSE
!EMBED_TRUNC_PERTURBATION=FALSE
!EMBED_FROZEN=  0.000000000000000    
!EMBED_ACTIVE=  0.000000000000000    
_CHANGE_BASIS=FALSE
_RESTORE_BASIS=FALSE
_FIX_EMBED_GUESS=FALSE
_EMBED_SCF=FALSE
_HUZINAGA_T=FALSE
_HUZINAGA_F=FALSE
_HUZINAGA=FALSE
_HUZINAGA_CORRECT=FALSE
!FASTLATGRAD=  1.000000000000000    
!FASTVLAMBDA= -1.000000000000000    
!IFORCE= -1.000000000000000    
!USESYM= -1.000000000000000    
_SINDEX=  0.000000000000000    
_AVDOM_OSV=  0.000000000000000    
_AVDOM_PNO=  0.000000000000000    
_AVDOM_PAO=  0.000000000000000    
_AVDOM_LMO=  0.000000000000000    
_CC2OSV_FLAG=  0.000000000000000    
_EOMCCSD_CONV=FALSE
_TMADC2_FLAG=FALSE
_PROPADC2_FLAG=FALSE
_LEN_VirQ=  0.000000000000000    
_GRDCC2LR_FLAG=FALSE
_GRDADC2_FLAG=FALSE
_DMX_CC=-0.1732371975626368E-02
_DMY_CC=-0.2649103242696405E-02
_DMZ_CC=  3.427728276954509    
_DMX_NUC=-0.1125760191999941E-02
_DMY_NUC=-0.1958145740999947E-02
_DMZ_NUC=  2.524583883714000    
_RO_VGLOBAL=  0.000000000000000    
_OPT=FALSE
_FREQ=FALSE
_HESS=FALSE
_CMRCC_callName=EMPTY
_CMRCC_callCount=  0.000000000000000    
_GECCO_CIROOT=  1.000000000000000    
_SYM_CATION=  0.000000000000000    
_MON_A=FALSE
_MON_B=FALSE
R1=  1.078300000000000    
R2=  1.078300000000000    
R3=  1.078300000000000    
A2=  119.9974000000000    
A3=  120.0058000000000    
D3=  180.3676000000000    
DH1=  89.94430000000000    
ANG1=  89.90760000000000    
BB=  3.600000000000000    
GX1= 0.1902784213783030E-03
GY1= 0.3309700263508952E-03
GZ1=-0.4267106261827029    
GX2=-0.6477223316144438    
GY2=  1.932266951860035    
GZ2=-0.4222390108315325    
GX3=  1.997274343146765    
GY3=-0.4044431823484972    
GZ3=-0.4259982497964209    
GX4= -1.348763750427223    
GY4= -1.526835685491311    
GZ4=-0.4432157108260828    
GX5=-0.3055691824361080E-02
GY5=-0.4932049917503125E-02
GZ5=  6.376300612266431    
CBSEN= -40.19392135358107    
[Atoms] Angs
C     1    6         0.0001006910        0.0001751418       -0.2258055390
H     2    1        -0.3427598969        1.0225116363       -0.2234392621
H     3    1         1.0569120663       -0.2140221152       -0.2254285657
H     4    1        -0.7137350396       -0.8079666496       -0.2345396537
H     5    1        -0.0016170025       -0.0026099284        3.3741929739
[GTO]
   1 0
 s    9  1.00
  0.6665000000D+04  0.6920001793D-03
  0.1000000000D+04  0.5329001381D-02
  0.2280000000D+03  0.2707700701D-01
  0.6471000000D+02  0.1017180264D+00
  0.2106000000D+02  0.2747400712D+00
  0.7495000000D+01  0.4485641162D+00
  0.2797000000D+01  0.2850740738D+00
  0.5215000000D+00  0.1520400394D-01
  0.1596000000D+00 -0.3191000827D-02
 s    9  1.00
  0.6665000000D+04 -0.1460000642D-03
  0.1000000000D+04 -0.1154000508D-02
  0.2280000000D+03 -0.5725002519D-02
  0.6471000000D+02 -0.2331201026D-01
  0.2106000000D+02 -0.6395502813D-01
  0.7495000000D+01 -0.1499810660D+00
  0.2797000000D+01 -0.1272620560D+00
  0.5215000000D+00  0.5445292395D+00
  0.1596000000D+00  0.5804962554D+00
 s    9  1.00
  0.6665000000D+04  0.0000000000D+00
  0.1000000000D+04  0.0000000000D+00
  0.2280000000D+03  0.0000000000D+00
  0.6471000000D+02  0.0000000000D+00
  0.2106000000D+02  0.0000000000D+00
  0.7495000000D+01  0.0000000000D+00
  0.2797000000D+01  0.0000000000D+00
  0.5215000000D+00  0.0000000000D+00
  0.1596000000D+00  0.1000000000D+01
 p    4  1.00
  0.9439000000D+01  0.3810902127D-01
  0.2002000000D+01  0.2094801169D+00
  0.5456000000D+00  0.5085572839D+00
  0.1517000000D+00  0.4688422617D+00
 p    4  1.00
  0.9439000000D+01  0.0000000000D+00
  0.2002000000D+01  0.0000000000D+00
  0.5456000000D+00  0.0000000000D+00
  0.1517000000D+00  0.1000000000D+01
 d    1  1.00
  0.5500000000D+00  0.1000000000D+01
  
   2 0
 s    4  1.00
  0.1301000000D+02  0.1968498999D-01
  0.1962000000D+01  0.1379769298D+00
  0.4446000000D+00  0.4781477569D+00
  0.1220000000D+00  0.5012397451D+00
 s    4  1.00
  0.1301000000D+02  0.0000000000D+00
  0.1962000000D+01  0.0000000000D+00
  0.4446000000D+00  0.0000000000D+00
  0.1220000000D+00  0.1000000000D+01
 p    1  1.00
  0.7270000000D+00  0.1000000000D+01
  
   3 0
 s    4  1.00
  0.1301000000D+02  0.1968498999D-01
  0.1962000000D+01  0.1379769298D+00
  0.4446000000D+00  0.4781477569D+00
  0.1220000000D+00  0.5012397451D+00
 s    4  1.00
  0.1301000000D+02  0.0000000000D+00
  0.1962000000D+01  0.0000000000D+00
  0.4446000000D+00  0.0000000000D+00
  0.1220000000D+00  0.1000000000D+01
 p    1  1.00
  0.7270000000D+00  0.1000000000D+01
  
   4 0
 s    4  1.00
  0.1301000000D+02  0.1968498999D-01
  0.1962000000D+01  0.1379769298D+00
  0.4446000000D+00  0.4781477569D+00
  0.1220000000D+00  0.5012397451D+00
 s    4  1.00
  0.1301000000D+02  0.0000000000D+00
  0.1962000000D+01  0.0000000000D+00
  0.4446000000D+00  0.0000000000D+00
  0.1220000000D+00  0.1000000000D+01
 p    1  1.00
  0.7270000000D+00  0.1000000000D+01
  
   5 0
 s    4  1.00
  0.1301000000D+02  0.1968498999D-01
  0.1962000000D+01  0.1379769298D+00
  0.4446000000D+00  0.4781477569D+00
  0.1220000000D+00  0.5012397451D+00
 s    4  1.00
  0.1301000000D+02  0.0000000000D+00
  0.1962000000D+01  0.0000000000D+00
  0.4446000000D+00  0.0000000000D+00
  0.1220000000D+00  0.1000000000D+01
 p    1  1.00
  0.7270000000D+00  0.1000000000D+01


[MO]
 Sym=      1.1
 Ene=     -11.2306
 Spin= Alpha
 Occup=    2.000000
1 1.00137559226037
2 0.007981556188432
3 -0.007985820958166
4 -0.000000032893499
5 -0.000000089201789
6 0.000004292284919
7 -0.000000061024125
8 0.000000139840018
9 -0.000012748844616
10 0.000364144637250
11 0.000364456158529
12 -0.000728600795779
13 0.000000050987872
14 0.000004199724311
15 0.000006779507593
16 -0.000692498022935
17 0.001597087680982
18 -0.000165567147613
19 0.000493496542233
20 0.000001132880640
21 -0.000692190389656
22 0.001597015621279
23 0.000510080070820
24 -0.000103370809886
25 0.000000174211006
26 -0.000692632238294
27 0.001597320457621
28 -0.000344649074385
29 -0.000390070416003
30 -0.000004220342767
31 -0.000096851405612
32 0.000135755463247
33 -0.000000019350868
34 -0.000000031195906
35 -0.000003903742497
 Sym=      2.1
 Ene=      -0.8998
 Spin= Alpha
 Occup=    2.000000
1 -0.028133870339545
2 0.75535206022398
3 -0.14601874663951
4 0.000013031674560
5 0.000000208347630
6 -0.001154140823161
7 -0.000007214395849
8 0.000001543348871
9 0.000272706966451
10 0.001667650335008
11 0.001667253573305
12 -0.003334903908313
13 -0.000000269605796
14 0.000019126625131
15 0.000030869173946
16 0.35071762058265
17 -0.14540086457226
18 0.009061730788545
19 -0.027018084460124
20 -0.000110779892907
21 0.35072579889250
22 -0.14540070782857
23 -0.027929310061367
24 0.005660809673821
25 -0.000058168155325
26 0.35072397985042
27 -0.14540237930255
28 0.018866223361898
29 0.021357726401299
30 0.000182818114773
31 0.001962300808857
32 0.001077293693190
33 0.000000038193139
34 0.000000062451112
35 -0.000325313983630
 Sym=      3.1
 Ene=      -0.5712
 Spin= Alpha
 Occup=    2.000000
1 -0.000000157701870
2 0.000006580648084
3 0.000002018952908
4 0.097378739371978
5 0.63237172855805
6 0.003726887190496
7 -0.018375248447415
8 -0.11932275620188
9 -0.000704059952458
10 -0.008930524546433
11 0.008932530172224
12 -0.000002005625791
13 -0.021507404552988
14 -0.000179297629194
15 -0.000205154692185
16 0.56703134424412
17 -0.16103552149791
18 0.011879451191077
19 -0.017129525584919
20 -0.000041446617648
21 -0.030087300192208
22 0.008544924347716
23 0.003557805763526
24 0.012206448075694
25 0.000076975018803
26 -0.53694481488884
27 0.15248848898452
28 -0.017684367540856
29 -0.009669975384875
30 -0.000122090991649
31 0.000018035183179
32 0.000006712623089
33 0.000025310111093
34 0.000166092267491
35 -0.000003954357820
 Sym=      4.1
 Ene=      -0.5712
 Spin= Alpha
 Occup=    2.000000
1 0.000000279283133
2 -0.000015356453695
3 -0.000001886274082
4 0.63238132886924
5 -0.097390858375051
6 0.001584271233854
7 -0.11931142897006
8 0.018373967802877
9 -0.000299240491117
10 0.018630584876425
11 -0.018628998606253
12 -0.000001586270173
13 -0.010314202437518
14 -0.000172695058903
15 -0.000121130506436
16 -0.29262814014812
17 0.083100762607871
18 0.007402296370950
19 0.013378015403888
20 0.000090954280366
21 0.63737770120537
22 -0.18100380560189
23 -0.021932874703736
24 0.005055719017015
25 -0.000033319464007
26 -0.34474380359760
27 0.097898784763830
28 -0.000056340320770
29 -0.016187184021303
30 -0.000094416955606
31 0.000007637302917
32 0.000002657372188
33 0.000166165186846
34 -0.000025856985563
35 -0.000001662311989
 Sym=      5.1
 Ene=      -0.1674
 Spin= Alpha
 Occup=    1.130850
1 0.000375198284951
2 -0.005714353915943
3 -0.003284260410092
4 -0.002089048472631
5 -0.003371587196974
6 0.61378949212317
7 -0.000243621076595
8 -0.000392772211729
9 0.072634319431374
10 -0.000519751943002
11 -0.000520180526712
12 0.001039932469714
13 0.000004771041548
14 -0.000004090988933
15 -0.000007821564392
16 -0.004473971716209
17 0.003896451614008
18 -0.000068201284802
19 -0.000007455165244
20 0.013791223867761
21 -0.004453994156645
22 0.003887965999679
23 0.000022368064318
24 -0.000087870820623
25 0.013789273363709
26 -0.004364813584130
27 0.003848483561779
28 -0.000090188257109
29 -0.000124217354208
30 0.013783462293999
31 0.68320909144072
32 0.020985953520374
33 0.000001034310554
34 0.000001661980109
35 -0.000737571998092
 Sym=      6.1
 Ene=      -0.1193
 Spin= Alpha
 Occup=    0.869150
1 0.000917818361072
2 -0.005556678533600
3 -0.006403416514472
4 0.002135389585707
5 0.003445903753150
6 -0.65017443556354
7 0.000242718594657
8 0.000391993246207
9 -0.074728216181764
10 -0.000192845242841
11 -0.000193278852355
12 0.000386124095196
13 0.000004698075146
14 -0.000003536827402
15 -0.000004432862822
16 -0.002389121189591
17 0.002324270327578
18 0.000031503099108
19 0.000119890998816
20 -0.013861432836840
21 -0.002369507101563
22 0.002317071609874
23 0.000092439506298
24 0.000065758177092
25 -0.013861679511127
26 -0.002281225375594
27 0.002283778726508
28 0.000016766921124
29 0.000041363337796
30 -0.013866078442051
31 0.73319413590991
32 -0.022549421985951
33 0.000000842072591
34 0.000001341135370
35 0.001715162901146
 Sym=      7.1
 Ene=       0.2022
 Spin= Alpha
 Occup=    0.000000
1 0.080286065856672
2 -0.21809748785164
3 -2.08356486150103
4 0.000014585687194
5 0.000025633749228
6 0.002041705356123
7 0.000028047405941
8 0.000100957603251
9 -0.001750861314776
10 -0.014167184989675
11 -0.014171518359610
12 0.028338703349284
13 -0.000002579147991
14 -0.000163624297168
15 -0.000264083789467
16 0.050405436432908
17 1.02156676186682
18 0.005920424562908
19 -0.017650096563579
20 0.000147923181823
21 0.050383512970027
22 1.02162693510841
23 -0.018245563075804
24 0.003696477648485
25 0.000182156722026
26 0.050373197382984
27 1.02190604821367
28 0.012328625678576
29 0.013953440864861
30 0.000339045418669
31 -0.081912020790198
32 0.052468211234757
33 0.000013322270347
34 0.000021448588126
35 -0.004356385062012
 Sym=      8.1
 Ene=       0.2713
 Spin= Alpha
 Occup=    0.000000
1 -0.000005520601087
2 0.000018903691505
3 0.000140070556761
4 0.095670668633600
5 0.43206897816395
6 0.002631228463660
7 0.27098701511233
8 1.22389263025057
9 0.007535026513530
10 -0.008065183365512
11 0.008069214113513
12 -0.000004030748001
13 -0.023185358983320
14 -0.000210365499844
15 -0.000273128791235
16 -0.016771647172186
17 -1.88246364229855
18 -0.005843267833749
19 0.023265628760256
20 0.000101031928900
21 -0.000365517665069
22 -0.039468325726432
23 0.001205855372614
24 0.003427169646991
25 0.000020537364676
26 0.017103824126828
27 1.92174455878516
28 0.014855616333201
29 0.019454734565532
30 0.000155487245814
31 0.000714753528425
32 -0.000413691650232
33 -0.000387853733489
34 -0.001863574041603
35 0.000044349005552
 Sym=      9.1
 Ene=       0.2713
 Spin= Alpha
 Occup=    0.000000
1 0.000003681463887
2 0.000007176114673
3 -0.000082972193835
4 -0.43208377056188
5 0.095676291477905
6 -0.000921585626952
7 -1.22382672667954
8 0.27100473275318
9 -0.002638361410696
10 -0.020083763471297
11 0.020078192087063
12 0.000005571384234
13 0.009314062158318
14 0.000218684398787
15 0.000101428723983
16 -0.010111883475499
17 -1.13223004155084
18 -0.007502851846690
19 0.012656230174825
20 0.000042039482640
21 0.019590903117669
22 2.19633158735354
23 -0.027337612780326
24 0.005606800742465
25 -0.000056993715250
26 -0.009508646856862
27 -1.06395606726088
28 -0.011312327399587
29 -0.008043428409531
30 -0.000082089860604
31 -0.000253673956405
32 0.000148551012218
33 0.001872257936359
34 -0.000439363536789
35 -0.000015532319809
 Sym=     10.1
 Ene=       0.6155
 Spin= Alpha
 Occup=    0.000000
1 -0.021641644443432
2 -0.049574833413212
3 0.17664777017368
4 -0.28084757764424
5 -0.31210682617914
6 -0.20338516023527
7 1.04859083590139
8 1.16647764766313
9 0.22480613333634
10 -0.026245187811936
11 -0.000186214895942
12 0.026431402707877
13 0.11311116149215
14 0.000612862588918
15 0.000456320561299
16 -0.72933748613761
17 0.24392193422065
18 0.058382221738900
19 0.005873526289729
20 -0.009504022986128
21 -0.74770021086618
22 0.25009668787422
23 -0.001572938850375
24 0.058134552445285
25 -0.009431515580188
26 1.11586888177377
27 -0.34287294345080
28 0.003961405109097
29 0.003663334609376
30 -0.009956238272907
31 -0.65359758625757
32 0.71336294090039
33 0.002018321967838
34 0.002244004857522
35 -0.003800526066491
 Sym=     11.1
 Ene=       0.6155
 Spin= Alpha
 Occup=    0.000000
1 0.004640954962017
2 0.010634421577247
3 -0.037777872452324
4 -0.34380489244593
5 0.29061975820261
6 0.043226552370042
7 1.28059720593989
8 -1.08371593622618
9 -0.047415677201521
10 -0.10224874132210
11 0.10791639784134
12 -0.005667656519240
13 -0.012479869087428
14 -0.000229266937302
15 0.000471535671892
16 1.15592343840573
17 -0.37073660066895
18 0.032270479169547
19 0.018170125208419
20 0.002171973768069
21 -1.13216375088282
22 0.35806382614452
23 -0.009260434449823
24 -0.032642734129078
25 0.002009495625369
26 0.053810107031542
27 -0.020033394873110
28 0.051044756054423
29 -0.048266963470777
30 0.002008665051355
31 0.13924814318606
32 -0.15199038835735
33 0.002454802795592
34 -0.002075809411171
35 0.000804921189535
 Sym=     12.1
 Ene=       0.6161
 Spin= Alpha
 Occup=    0.000000
1 -0.056110117363102
2 -0.12838944247611
3 0.45729223524432
4 0.082614073884095
5 0.14850139459714
6 -0.52040896274155
7 -0.30241599123443
8 -0.54469840808589
9 0.55510262877673
10 -0.037975777360685
11 -0.030711274036748
12 0.068687051397433
13 -0.044915612300024
14 -0.000628003049069
15 -0.000738196999649
16 0.016395990997737
17 0.026118480742347
18 -0.009859276791926
19 -0.030545109607980
20 -0.025656161657629
21 -0.16549392173830
22 0.084227633079962
23 -0.030975835372939
24 -0.018845471034266
25 -0.025671844630435
26 -0.78945145021508
27 0.28446241742862
28 0.023627210252555
29 0.018337200287949
30 -0.025346652568927
31 -1.68437642350463
32 1.83913156546996
33 -0.000580427434733
34 -0.001042906325397
35 -0.009473960377891
 Sym=     13.1
 Ene=       0.7249
 Spin= Alpha
 Occup=    0.000000
1 0.094666298680126
2 0.10946286687009
3 -0.53518290038893
4 0.003031222624672
5 0.004711708401640
6 -0.87820435179882
7 -0.003910375858900
8 -0.005610599120363
9 1.05847245257877
10 0.10988446376160
11 0.10988702456061
12 -0.21977148832220
13 -0.000007716597486
14 0.001271863705791
15 0.002051955867709
16 0.91697773656672
17 -0.65680508704291
18 -0.030567566548281
19 0.091614326879474
20 -0.033253325416719
21 0.91725526061347
22 -0.65668788571171
23 0.094618976611524
24 -0.018974272487103
25 -0.033432126831232
26 0.91698679282955
27 -0.65678291519953
28 -0.063745235747319
29 -0.072090703226570
30 -0.034247468471860
31 -0.038046308358178
32 0.028238715927659
33 -0.000007795592529
34 -0.000011692196235
35 -0.008765415932817
 Sym=     14.1
 Ene=       0.7768
 Spin= Alpha
 Occup=    0.000000
1 0.031124046000097
2 -0.051522863299129
3 -0.047355467602111
4 -0.002931416285691
5 -0.004842468060047
6 1.06135324085235
7 0.003004441869205
8 0.005231799497464
9 -1.31985337527540
10 0.074383746679424
11 0.074411163129937
12 -0.14879490980936
13 -0.000148429849383
14 0.000947452897327
15 0.001530750196397
16 0.58554034904039
17 -0.50263971552494
18 -0.022153694882590
19 0.065215649312950
20 0.033712667682001
21 0.58525076278531
22 -0.50227369888383
23 0.067515017697514
24 -0.014007013266847
25 0.033554297934839
26 0.58333611866611
27 -0.50126107961421
28 -0.045895524287983
29 -0.052032522160788
30 0.032826489813581
31 -1.09615712694046
32 1.28267976356678
33 -0.000018124057188
34 -0.000029055501913
35 0.033597827504361
 Sym=     15.1
 Ene=       0.9040
 Spin= Alpha
 Occup=    0.000000
1 -0.000000544043092
2 -0.000031482381629
3 0.000068120607805
4 -1.23221383731542
5 0.16102216612677
6 -0.003131800057029
7 2.28758047692052
8 -0.29893487232422
9 0.005875330773665
10 0.26562536747258
11 -0.26557360605692
12 -0.000051761415661
13 -0.15576774764725
14 -0.000970522309246
15 -0.002020277426507
16 -0.25999550724637
17 0.88163394152785
18 -0.020304494751432
19 -0.14105121599956
20 -0.000521434414300
21 0.59226607291644
22 -2.00752479858114
23 0.28304863668805
24 -0.062461679901801
25 -0.000085287855270
26 -0.33194416441612
27 1.12554147587078
28 0.063261111526234
29 0.16091102117150
30 0.001468050328587
31 -0.000290492480233
32 0.000377456809747
33 -0.002455618101471
34 0.000392342856842
35 0.000016004492719
 Sym=     16.1
 Ene=       0.9040
 Spin= Alpha
 Occup=    0.000000
1 -0.000020673585026
2 -0.000129947705742
3 0.000221908851837
4 -0.16100356878480
5 -1.23219770864212
6 -0.006941231385022
7 0.29890651988012
8 2.28760417672768
9 0.013012058665276
10 -0.13487087103711
11 0.13492510050535
12 -0.000054229468245
13 -0.30665316901696
14 -0.002322179712201
15 -0.001339415159138
16 0.53374550640807
17 -1.80906017259284
18 -0.11266014382922
19 0.23766885340290
20 0.000280262380978
21 -0.041426296699739
22 0.14066751842012
23 -0.034038286073864
24 -0.065699077283751
25 -0.000416825999418
26 -0.49197224326548
27 1.66793958553580
28 0.18929744073992
29 0.15405363021596
30 0.002040218882405
31 -0.000587408854436
32 0.000770371566416
33 -0.000247913882178
34 -0.002444131895539
35 0.000033792465201
 Sym=     17.1
 Ene=       1.0726
 Spin= Alpha
 Occup=    0.000000
1 -0.79632227011745
2 -3.62503360913495
3 6.13852460570900
4 0.000054688497708
5 0.000128721953420
6 -0.022615493474813
7 -0.000001478490092
8 -0.000211747234847
9 0.027471159187430
10 0.023966038052007
11 0.024013881710271
12 -0.047979919762278
13 0.000043443617691
14 0.000242999245114
15 0.000391935578227
16 -0.15813024576640
17 -0.87861851688979
18 -0.060367716079092
19 0.18003474661602
20 0.000751010978966
21 -0.15813191869831
22 -0.87871092760979
23 0.18609927451951
24 -0.037701271727132
25 0.000413398700350
26 -0.15802033173922
27 -0.87890018394134
28 -0.12571497492698
29 -0.14231201607947
30 -0.001134618821539
31 0.11641615729123
32 -0.13484356035197
33 -0.000063063584389
34 -0.000101771290196
35 -0.007583564601813
 Sym=     18.1
 Ene=       1.2179
 Spin= Alpha
 Occup=    0.000000
1 -0.000069733111874
2 -0.000300898875274
3 0.000473999914105
4 0.000061642547519
5 0.000384349611694
6 -0.000159227743080
7 0.000209479333207
8 0.001349962608468
9 0.000223966540273
10 -0.001348004999672
11 -0.005011146412019
12 0.006359151411691
13 -0.004460937033225
14 0.096965609255270
15 0.61831780141309
16 -0.001104993956521
17 0.000066035117804
18 -0.002149809565528
19 -0.001783297872135
20 0.36655841730082
21 -0.000035601070391
22 0.000019420179587
23 -0.000304547630133
24 -0.001633386690317
25 -0.018321394342069
26 0.000885334231516
27 -0.000028667937310
28 0.002164243778391
29 0.001570163207097
30 -0.34821361986938
31 0.000939640508877
32 -0.001123443620258
33 0.000071322145759
34 0.000458545839594
35 -0.000037120625850
 Sym=     19.1
 Ene=       1.2179
 Spin= Alpha
 Occup=    0.000000
1 -0.000029103969338
2 -0.000125574320457
3 0.000197783787804
4 0.000383420858219
5 -0.000058742866445
6 -0.000076117846563
7 0.001351223113563
8 -0.000214252131092
9 0.000094586381149
10 -0.001957822993310
11 -0.000724089493734
12 0.002681912487045
13 -0.003899628733363
14 0.61835883868073
15 -0.097026153272619
16 0.000492765344790
17 -0.000013435250198
18 -0.000778916815805
19 0.000299674180268
20 -0.19046330105970
21 -0.001183299954841
22 0.000060108243543
23 -0.000874369575181
24 -0.002405530814663
25 0.41268690280503
26 0.000583671601286
27 -0.000022488206251
28 -0.000193121597519
29 0.002394884578687
30 -0.22218863241465
31 0.000394634576452
32 -0.000471716124642
33 0.000458693500029
34 -0.000072561147855
35 -0.000015199047246
 Sym=     20.1
 Ene=       1.5123
 Spin= Alpha
 Occup=    0.000000
1 -0.000128787362743
2 -0.000574537042943
3 0.001000819578959
4 -0.000995089136648
5 -0.000955115074604
6 -0.000034169563423