[Molden Format]
[Molpro variables]
_NUMVAR=  1038.000000000000    
_AVOGAD= 0.6022140760000000E+24
_BOLTZ= 0.1380649000000000E-22
_CLIGHTSI=  299792458.0000000    
_JOULE= 0.4359744722207100E-17
_JPCAL=  4.184000000000000    
_PLANCK= 0.6626070150000000E-33
_BOHR= 0.5291772109030000E-10
_ECHARG= 0.1602176634000000E-18
_ENULL= 0.8854187812800001E-11
_MU= 0.1660539066600000E-26
_EMASS= 0.9109383701500001E-30
_AMU2AU=  1822.888486217313    
_CLIGHT=  29979245800.00000    
_EV= 0.3674932217565494E-01
_KJOULE= 0.3808798847133432E-03
_KJOULE/MOL= 0.3808798847133432E-03
_CM= 0.4556335252912009E-05
_CM-1= 0.4556335252912009E-05
_DEB2SI= 0.3335640951981520E-29
_KCAL= 0.1593601437640628E-02
_KCAL/MOL= 0.1593601437640628E-02
_KELVIN= 0.3166811563455608E-05
_HERTZ= 0.1519829846057038E-15
_HZ= 0.1519829846057038E-15
_TOA= 0.5291772109030000    
_TOANG= 0.5291772109030000    
_TORAD= 0.1745329251994330E-01
_TOCM=  219474.6313631965    
_TODEBYE=  2.541746473194078    
_TOE= 0.4803204712570263E-09
_TOEV=  27.21138624598803    
_TOHERTZ=  6579683920501656.    
_TOHZ=  6579683920501656.    
_TOK=  315775.0248040668    
_TOKCAL=  627.5094740630558    
_TOKELVIN=  315775.0248040668    
_TOKJ=  2625.499639479825    
_TOKJOULE=  2625.499639479825    
_TOKG= 0.1660539066600000E-26
_ANG=  1.889726124625770    
_ANGSTROM=  1.889726124625770    
_RPAREF=  0.000000000000000    
_RPADISS=  0.000000000000000    
_IGNORE_UNDEF=  2.000000000000000    
_STRICTCHECK=  0.000000000000000    
!SEWARD=  0.000000000000000    
!MULTI=  0.000000000000000    
!DFMULTI=  0.000000000000000    
_SEW_ONEEL=  0.000000000000000    
_CPPDONE=FALSE
_DKROLL_DONE=  0.000000000000000    
_FNUC_DONE=  0.000000000000000    
_FOCKDONE=  0.000000000000000    
_GRADONE=FALSE
_HESSDONE=FALSE
_INTDONE=TRUE
_SCFDONE=FALSE
_MODUL_BLOCK=FALSE
_MODUL_CUDA=FALSE
_MODUL_SLATER=FALSE
_MODUL_MRCC=TRUE
_MODUL_NBO6=FALSE
_MODUL_NECI=FALSE
_MODUL_AIMS=TRUE
_MODUL_GECCO=FALSE
_ISWINDOWS=FALSE
_MRCC_EXEC=/software/cinetica/mrcc/bin/dmrcc
_FITC_AO_SAVED=FALSE
_FITC_MO_SAVED=FALSE
_SHARED_FS=TRUE
_LSTYP=SEWARD
_INTYP=INTS
_GEOMTYP=ZMAT
_GRADTYP=ALASKA
_DIRECT=FALSE
_DKHO= -1.000000000000000    
_FNUC=  0.000000000000000    
_SYNCM=  0.000000000000000    
_BASIS=CC-PVDZ
_ZORIENT=  1.000000000000000    
!ZORIENT=  0.000000000000000    
_NELEC=  10.00000000000000    
!SPIN=  0.000000000000000    
_QSDSTEP=  0.000000000000000    
_QSDIRC=  0.000000000000000    
_PROGRAM=RS2
_CPUSTEP= 0.7999999999999996E-01
_SYSSTEP= 0.1999999999999996E-01
_WALLSTEP= 0.2400000000000000    
!DFMP2=  0.000000000000000    
!DFHFENERG=  0.000000000000000    
!SCSGRD=  0.000000000000000    
_CPUTOT= 0.7200000000000000    
_DMX= 0.2143238503191063E-03
_DMY= 0.1126720484481941E-03
_DMZ=-0.1115157235384343    
_EMP2= -40.19780498442923    
_ENERGR= -40.06305582493441    
_ENERGU= -40.18943391032141    
_ENERGY= -40.19780498442923    
_ENERGY_METHOD=RS2
_ENERGY_BASIS=cc-pVDZ
_GEOMETRY_METHOD=
_GEOMETRY_BASIS=
_ENERGY_AVRG= -40.06305582493439    
_ENUC=  11.23663448755150    
_GRADMETHOD=  9.000000000000000    
_NMRMETHOD=  0.000000000000000    
_NMRMAGNET=  0.000000000000000    
!GRID_FREEZE= -1.000000000000000    
!NEESE_INDEX=  0.000000000000000    
_ITERATIONS=  5.000000000000000    
_LASTNELEC=  2.000000000000000    
_LASTSPIN=  0.000000000000000    
_LASTSYM=  1.000000000000000    
_MPP_PROG=  1.000000000000000    
_MSNSTATES=  0.000000000000000    
_RS2PHASE=  0.000000000000000    
_IPROC_MPP=  0.000000000000000    
_IPROC_MPPX=  0.000000000000000    
_NPROC_MPP=  4.000000000000000    
_NPROC_MPPX=  4.000000000000000    
_NPROC_SMP=  1.000000000000000    
_NUMSTEP=  0.000000000000000    
_ORBITAL=  2140.200000000000    
_PI=  3.141592653589793    
!MCACT=  2.000000000000000    
!MCCLOSED=  4.000000000000000    
!MCFREEZE=  0.000000000000000    
!MCMS2=  0.000000000000000    
!MCNEL=  2.000000000000000    
!MCNSTSYM=  1.000000000000000    
!MCSTATE=  1.000000000000000    
!MCSYM=  1.000000000000000    
!MCWEIGHT=  1.000000000000000    
_SEIG_MIN= 0.1500479416338996E-01
_SEWPROP=TRUE
_STATUS=  1.000000000000000    
_SYSTOT= 0.3400000000000000    
_VERSION=  2022002.000000000    
_WALLTOT=  1.620000000000000    
_DATE=03-Jun-23
_LASTORB=MCSCF
_OUTPUT=/home/chimica2/cavallotti/qm/barrierless/vrc_autom/folders/ch3+h/dist_3.0/molpro.out
_PGROUP=C1
_TIME=08:59:56
_LIBMOL=/software/cinetica/molpro_2022.2/lib/
_VIGRDC=  0.000000000000000    
!VIBCNT=  0.000000000000000    
!RGHFCNT=  0.000000000000000    
!SURFREC=  0.000000000000000    
!XSURFREC=  0.000000000000000    
!XPOLYREC=  0.000000000000000    
!ROTREC=  0.000000000000000    
!POLYREC=  0.000000000000000    
!DIPREC=  0.000000000000000    
!DIP4DREC=  0.000000000000000    
!DIPROT=  0.000000000000000    
!DIP4DROT=  0.000000000000000    
!PTREC=  0.000000000000000    
!PT4DREC=  0.000000000000000    
!VSCFREC=  0.000000000000000    
!VCIREC=  0.000000000000000    
!PVCIREC=  0.000000000000000    
!VMP2REC=  0.000000000000000    
!VMCSCFREC=  0.000000000000000    
!VMRCIREC=  0.000000000000000    
!VIBSTATEREC=  0.000000000000000    
!VIBSTATECNT=  0.000000000000000    
!VIBINFO=  0.000000000000000    
!GAREC=  0.000000000000000    
!MCORB=  21402.00000000000    
!DEFCORE=  1.000000000000000    
!SCORE=  0.000000000000000    
!NEWMOL= -1.000000000000000    
!NEWSYM= -1.000000000000000    
_SLFILES=slscratch
_NGSSTO=  9.000000000000000    
_SIN=SIN
_COS=COS
_TAN=TAN
_ACOS=ACOS
_ASIN=ASIN
_ATAN=ATAN
_COSH=COSH
_SINH=SINH
_TANH=TANH
_ABS=ABS
_MOD=MOD
_ERF=ERF
_REFC=REFC
_ERFC=ERFC
_HYPOT=HYPOT
_J0=J0
_J1=J1
_JN=JN
_GAMMA=GAMMA
_LGAMMA=LGAMMA
_Y0=Y0
_Y1=Y1
_YN=YN
_EXP=EXP
_LOG=LOG
_LOG10=LOG10
_SQRT=SQRT
_INT=INT
_NINT=NINT
_MAX=MAX
_MIN=MIN
_COSMO=  0.000000000000000    
_COSMOIT=  0.000000000000000    
_COSMOES=  0.000000000000000    
_COSMOEDS=  0.000000000000000    
_COSMOEC=  0.000000000000000    
_COSMOEDCORR=  0.000000000000000    
_FEPSI=  1.000000000000000    
_SL_IsMM=  0.000000000000000    
_SL_NSYM=  1.000000000000000    
_SL_System_BitSw=  0.000000000000000    
_SL_Unique_atoms=  0.000000000000000    
_SL_GRAD=  0.000000000000000    
_SL_MAXUPD_Hess=  5.000000000000000    
_SL_N_PRINT_COD=  5.000000000000000    
_SL_PRINT_CODES=  0.000000000000000    
_SL_BasType=  0.000000000000000    
_SL_Energy_Pred=  0.000000000000000    
_SL_New_Coords=  0.000000000000000    
_SL_Total_Nuclea=  0.000000000000000    
_SL_Highest_Mltp=  0.000000000000000    
_SL_Ref_Geom=  0.000000000000000    
_SL_Symmetry_ope=  1.000000000000000    
_SL_agrad=  0.000000000000000    
_SL_GrdMax=  0.000000000000000    
_SL_GrdNorm=  0.000000000000000    
_SL_GrdRMS=  0.000000000000000    
_SL_Hss_Q=  0.000000000000000    
_SL_Hss_X=  0.000000000000000    
_SL_BMxOld=  0.000000000000000    
_SL_KtB=  0.000000000000000    
_SL_TROld=  0.000000000000000    
_SL_No_of_Intern=  0.000000000000000    
_SL_Hess=  0.000000000000000    
_SL_K=  0.000000000000000    
!LATTICE= -1.000000000000000    
!NEWLATTICE=  0.000000000000000    
!LATGRAD_VAR=FALSE
!SEW_LATTICE=  1.000000000000000    
!AIC_ONEEL=  0.000000000000000    
!LOCAL=  0.000000000000000    
!SAVEDOM= -1.000000000000000    
!RESTDOM= -1.000000000000000    
!SAVEDOM_HF= -1.000000000000000    
!RESTDOM_HF= -1.000000000000000    
!HESSREC=  0.000000000000000    
!FREQREC=  0.000000000000000    
!NMODREC=  0.000000000000000    
!GTASKS=  0.000000000000000    
!HTASKS=  0.000000000000000    
!SAVEDOM_EOM= -1.000000000000000    
!RESTDOM_EOM= -1.000000000000000    
!GRADSTATE= -1.000000000000000    
!DEBUG=  0.000000000000000    
!CFIT_CPHF=  0.000000000000000    
!RDOMAUX_CPHF=  0.000000000000000    
!THRAO_CPHF= 0.1000000000000000E-11
!THRMO_CPHF= 0.1000000000000000E-11
!THROV_CPHF= 0.1000000000000000E-11
!THRSW_CPHF= 0.1000000000000000E-11
!THRPROD_CPHF= 0.1000000000000000E-11
!THRAOPR_CPHF= 0.1000000000000000E-11
!CFIT_SCFGRD=  0.000000000000000    
!RDOMAUX_SCFGRD=  0.000000000000000    
!THRAO_SCFGRD= 0.1000000000000000E-11
!THRMO_SCFGRD= 0.1000000000000000E-11
!THROV_SCFGRD= 0.1000000000000000E-11
!THRSW_SCFGRD= 0.1000000000000000E-11
!THRPROD_SCFGRD= 0.1000000000000000E-11
!THRAOPR_SCFGRD= 0.1000000000000000E-11
!LOCFIT_SCF=  0.000000000000000    
!LOCFIT_MP2=  0.000000000000000    
_RIDOM=  0.000000000000000    
!CC2_METHOD=  0.000000000000000    
_BASIS2006=FALSE
_SVDDEL= -1.000000000000000    
_SVDDELA= -1.000000000000000    
_SVDDELP= -1.000000000000000    
_SVDDELF= -1.000000000000000    
_SVDDELS= -1.000000000000000    
_SVDDEL_ABS= -1.000000000000000    
_SVDDELA_ABS= -1.000000000000000    
_SVDDELP_ABS= -1.000000000000000    
_SVDDELF_ABS= -1.000000000000000    
_SVDDELS_ABS= -1.000000000000000    
_MAXBASIS=  0.000000000000000    
!OPT_CONICAL=  0.000000000000000    
!CLEARSP_JGRID=  0.000000000000000    
_GRDHYBR=  0.000000000000000    
_STATEGRAD=  1.000000000000000    
_4EXT_NDISKS=  1.000000000000000    
!EMBEDFLAG=  1.000000000000000    
!EMBED=FALSE
!EMBED_F12=FALSE
!EMBEDNUC=  0.000000000000000    
_EMBEDENERGY=  0.000000000000000    
!EMBED_DFC=FALSE
!NUM_VOIDS=  0.000000000000000    
_IBODY=  0.000000000000000    
_EMBE_CORR=  0.000000000000000    
!EMBED_PROJ=FALSE
!EMB_PROJ_ZMU=  1000000.000000000    
!CORRECTION_HF=  0.000000000000000    
!EMBED_AORB=  0.000000000000000    
!EMBED_NACORR=  0.000000000000000    
!EMBED_MP2=FALSE
!EMBED_TRUNC_PERTURBATION=FALSE
!EMBED_FROZEN=  0.000000000000000    
!EMBED_ACTIVE=  0.000000000000000    
_CHANGE_BASIS=FALSE
_RESTORE_BASIS=FALSE
_FIX_EMBED_GUESS=FALSE
_EMBED_SCF=FALSE
_HUZINAGA_T=FALSE
_HUZINAGA_F=FALSE
_HUZINAGA=FALSE
_HUZINAGA_CORRECT=FALSE
!FASTLATGRAD=  1.000000000000000    
!FASTVLAMBDA= -1.000000000000000    
!IFORCE= -1.000000000000000    
!USESYM= -1.000000000000000    
_SINDEX=  0.000000000000000    
_AVDOM_OSV=  0.000000000000000    
_AVDOM_PNO=  0.000000000000000    
_AVDOM_PAO=  0.000000000000000    
_AVDOM_LMO=  0.000000000000000    
_CC2OSV_FLAG=  0.000000000000000    
_EOMCCSD_CONV=FALSE
_TMADC2_FLAG=FALSE
_PROPADC2_FLAG=FALSE
_LEN_VirQ=  0.000000000000000    
_GRDCC2LR_FLAG=FALSE
_GRDADC2_FLAG=FALSE
_DMX_CC=-0.2604644878856810E-02
_DMY_CC=-0.1503067393604063E-02
_DMZ_CC=  2.943373162702730    
_DMX_NUC=-0.1624554812000154E-02
_DMY_NUC=-0.1605985949999757E-02
_DMZ_NUC=  2.057461677877000    
_RO_VGLOBAL=  0.000000000000000    
_OPT=FALSE
_FREQ=FALSE
_HESS=FALSE
_CMRCC_callName=EMPTY
_CMRCC_callCount=  0.000000000000000    
_GECCO_CIROOT=  1.000000000000000    
_SYM_CATION=  0.000000000000000    
_MON_A=FALSE
_MON_B=FALSE
R1=  1.078300000000000    
R2=  1.078300000000000    
R3=  1.078300000000000    
A2=  119.9755000000000    
A3=  119.9678000000000    
D3=  184.3550000000000    
DH1=  92.00369999999999    
ANG1=  91.11060000000001    
BB=  3.000000000000000    
GX1= 0.2745857663952387E-03
GY1= 0.2714472177109094E-03
GZ1=-0.3477566210321851    
GX2= 0.1408347412480342    
GY2=  2.032752121325003    
GZ2=-0.3858687655835913    
GX3=  1.689862008750722    
GY3= -1.138050772241318    
GZ3=-0.3890391629841232    
GX4= -1.829551305112428    
GY4=-0.8946736506858777    
GZ4=-0.4025093771163998    
GX5=-0.4417514295392871E-02
GY5=-0.3262367655823856E-02
GZ5=  5.321418709753381    
CBSEN= -40.19780498442923    
[Atoms] Angs
C     1    6         0.0001453045        0.0001436437       -0.1840248788
H     2    1         0.0745265356        1.0756860980       -0.2041929571
H     3    1         0.8942364646       -0.6022305335       -0.2058706592
H     4    1        -0.9681568568       -0.4734409071       -0.2129987895
H     5    1        -0.0023376479       -0.0017263706        2.8159735109
[GTO]
   1 0
 s    9  1.00
  0.6665000000D+04  0.6920001793D-03
  0.1000000000D+04  0.5329001381D-02
  0.2280000000D+03  0.2707700701D-01
  0.6471000000D+02  0.1017180264D+00
  0.2106000000D+02  0.2747400712D+00
  0.7495000000D+01  0.4485641162D+00
  0.2797000000D+01  0.2850740738D+00
  0.5215000000D+00  0.1520400394D-01
  0.1596000000D+00 -0.3191000827D-02
 s    9  1.00
  0.6665000000D+04 -0.1460000642D-03
  0.1000000000D+04 -0.1154000508D-02
  0.2280000000D+03 -0.5725002519D-02
  0.6471000000D+02 -0.2331201026D-01
  0.2106000000D+02 -0.6395502813D-01
  0.7495000000D+01 -0.1499810660D+00
  0.2797000000D+01 -0.1272620560D+00
  0.5215000000D+00  0.5445292395D+00
  0.1596000000D+00  0.5804962554D+00
 s    9  1.00
  0.6665000000D+04  0.0000000000D+00
  0.1000000000D+04  0.0000000000D+00
  0.2280000000D+03  0.0000000000D+00
  0.6471000000D+02  0.0000000000D+00
  0.2106000000D+02  0.0000000000D+00
  0.7495000000D+01  0.0000000000D+00
  0.2797000000D+01  0.0000000000D+00
  0.5215000000D+00  0.0000000000D+00
  0.1596000000D+00  0.1000000000D+01
 p    4  1.00
  0.9439000000D+01  0.3810902127D-01
  0.2002000000D+01  0.2094801169D+00
  0.5456000000D+00  0.5085572839D+00
  0.1517000000D+00  0.4688422617D+00
 p    4  1.00
  0.9439000000D+01  0.0000000000D+00
  0.2002000000D+01  0.0000000000D+00
  0.5456000000D+00  0.0000000000D+00
  0.1517000000D+00  0.1000000000D+01
 d    1  1.00
  0.5500000000D+00  0.1000000000D+01
  
   2 0
 s    4  1.00
  0.1301000000D+02  0.1968498999D-01
  0.1962000000D+01  0.1379769298D+00
  0.4446000000D+00  0.4781477569D+00
  0.1220000000D+00  0.5012397451D+00
 s    4  1.00
  0.1301000000D+02  0.0000000000D+00
  0.1962000000D+01  0.0000000000D+00
  0.4446000000D+00  0.0000000000D+00
  0.1220000000D+00  0.1000000000D+01
 p    1  1.00
  0.7270000000D+00  0.1000000000D+01
  
   3 0
 s    4  1.00
  0.1301000000D+02  0.1968498999D-01
  0.1962000000D+01  0.1379769298D+00
  0.4446000000D+00  0.4781477569D+00
  0.1220000000D+00  0.5012397451D+00
 s    4  1.00
  0.1301000000D+02  0.0000000000D+00
  0.1962000000D+01  0.0000000000D+00
  0.4446000000D+00  0.0000000000D+00
  0.1220000000D+00  0.1000000000D+01
 p    1  1.00
  0.7270000000D+00  0.1000000000D+01
  
   4 0
 s    4  1.00
  0.1301000000D+02  0.1968498999D-01
  0.1962000000D+01  0.1379769298D+00
  0.4446000000D+00  0.4781477569D+00
  0.1220000000D+00  0.5012397451D+00
 s    4  1.00
  0.1301000000D+02  0.0000000000D+00
  0.1962000000D+01  0.0000000000D+00
  0.4446000000D+00  0.0000000000D+00
  0.1220000000D+00  0.1000000000D+01
 p    1  1.00
  0.7270000000D+00  0.1000000000D+01
  
   5 0
 s    4  1.00
  0.1301000000D+02  0.1968498999D-01
  0.1962000000D+01  0.1379769298D+00
  0.4446000000D+00  0.4781477569D+00
  0.1220000000D+00  0.5012397451D+00
 s    4  1.00
  0.1301000000D+02  0.0000000000D+00
  0.1962000000D+01  0.0000000000D+00
  0.4446000000D+00  0.0000000000D+00
  0.1220000000D+00  0.1000000000D+01
 p    1  1.00
  0.7270000000D+00  0.1000000000D+01


[MO]
 Sym=      1.1
 Ene=     -11.2367
 Spin= Alpha
 Occup=    2.000000
1 1.00136819606911
2 0.007912429184020
3 -0.007949585067390
4 0.000000018441655
5 -0.000000096643873
6 -0.000055428670702
7 0.000000198903784
8 0.000000833026988
9 -0.000013139124220
10 0.000368356438880
11 0.000370383072837
12 -0.000738739511716
13 0.000000075042241
14 0.000005085560055
15 0.000003757843888
16 -0.000666676248734
17 0.001569560086511
18 0.000035711077593
19 0.000515057748817
20 -0.000016628104660
21 -0.000664964784424
22 0.001569064399511
23 0.000428071600082
24 -0.000287810168374
25 -0.000017391647340
26 -0.000665223192725
27 0.001569529349316
28 -0.000463438201036
29 -0.000226215158820
30 -0.000020777692600
31 -0.000172970786957
32 0.000285300670107
33 -0.000000043929177
34 -0.000000031395289
35 -0.000049439047943
 Sym=      2.1
 Ene=      -0.9032
 Spin= Alpha
 Occup=    2.000000
1 -0.027742533887828
2 0.75739235144633
3 -0.14699022619691
4 0.000028234067997
5 -0.000039381763894
6 -0.011755200936002
7 0.000000608100188
8 0.000038311678254
9 0.002458547640199
10 0.001753728629247
11 0.001752519458950
12 -0.003506248088197
13 -0.000000466764618
14 0.000023873869329
15 0.000017666849875
16 0.35040400240108
17 -0.14587979826581
18 -0.001966724668105
19 -0.028445230758759
20 0.000162286945958
21 0.35044674030872
22 -0.14587849722140
23 -0.023647557115472
24 0.015928598525145
25 0.000206774967182
26 0.35046583935030
27 -0.14588175471035
28 0.025612974394390
29 0.012523317051704
30 0.000396077445165
31 0.005789619907930
32 0.001113858697639
33 0.000000085615777
34 0.000000071852420
35 -0.000557799120452
 Sym=      3.1
 Ene=      -0.5743
 Spin= Alpha
 Occup=    2.000000
1 -0.000002259302647
2 0.000112071993142
3 0.000019374779939
4 0.014713974517910
5 0.64210355663359
6 0.001949563355570
7 -0.002790646706605
8 -0.12171558779168
9 -0.000373034444853
10 -0.020351979466602
11 0.020358687011766
12 -0.000006707545164
13 0.004381898290624
14 -0.000121664335721
15 -0.001665957324467
16 0.63697504661015
17 -0.18261202564072
18 -0.002140855003303
19 -0.022468128175526
20 0.000457087565996
21 -0.34394944398303
22 0.098609780595815
23 0.016080391135194
24 0.002063616159464
25 -0.000217109981803
26 -0.29306193465676
27 0.084017425604508
28 -0.014279191657225
29 0.005575649967351
30 -0.000286733953183
31 0.000029335299089
32 -0.000000998442857
33 0.000008562061875
34 0.000385008804446
35 -0.000001473306652
 Sym=      4.1
 Ene=      -0.5742
 Spin= Alpha
 Occup=    2.000000
1 -0.000000715929377
2 0.000024173547188
3 0.000007175093335
4 0.64211156895764
5 -0.014724769919551
6 0.002525483570596
7 -0.12164079804954
8 0.002787934365996
9 -0.000481982264600
10 -0.003784051438436
11 0.003795147237567
12 -0.000011095799131
13 -0.023521594712872
14 -0.001840284005231
15 -0.000041365680660
16 0.029381926144973
17 -0.008419890616628
18 0.012589225233358
19 -0.001912556038348
20 0.000069188080464
21 0.53693368850836
22 -0.15388140200459
23 -0.011936162536825
24 0.016308582331007
25 0.000448879347955
26 -0.56632237597069
27 0.16229909562882
28 -0.015442588238950
29 -0.014056724652452
30 -0.000578495066170
31 0.000036478433129
32 -0.000002538218284
33 0.000384726876441
34 -0.000009083395195
35 -0.000001573479798
 Sym=      5.1
 Ene=      -0.1991
 Spin= Alpha
 Occup=    1.300527
1 0.000560141534747
2 -0.002018540390352
3 0.001786748628309
4 -0.002475503018423
5 -0.001823370285310
6 0.58913959404583
7 -0.000278413654830
8 -0.000203331259241
9 0.070683066029818
10 -0.001643091701598
11 -0.001652063259668
12 0.003295154961265
13 0.000003892550218
14 -0.000017665612914
15 -0.000016332736541
16 -0.017047958772667
17 0.007569958426595
18 -0.000005694527829
19 0.000676162466352
20 0.013654595475492
21 -0.017004311534247
22 0.007563090487555
23 0.000539102102982
24 -0.000441012058333
25 0.013649242068629
26 -0.016851500295270
27 0.007529849627487
28 -0.000692117238498
29 -0.000352062024636
30 0.013638636968391
31 0.66223420826859
32 0.032928344380146
33 0.000001037919388
34 0.000000710460096
35 -0.000254742401473
 Sym=      6.1
 Ene=      -0.0817
 Spin= Alpha
 Occup=    0.699473
1 0.002472529074965
2 -0.027165934585234
3 -0.020844716364419
4 0.002612051667071
5 0.001922428584495
6 -0.67061239076225
7 0.000312684637504
8 0.000230318817657
9 -0.079867755577009
10 0.000757227961533
11 0.000750977692321
12 -0.001508205653854
13 0.000003014765528
14 0.000007392829671
15 0.000009398867009
16 0.000419889432619
17 0.001154648161355
18 0.000080395157398
19 0.000401492530622
20 -0.013915157049783
21 0.000459329677461
22 0.001148778150957
23 0.000353701261438
24 -0.000160400677362
25 -0.013911977314536
26 0.000631552317302
27 0.001126249552720
28 -0.000260316710048
29 -0.000113864600324
30 -0.013912325425986
31 0.76388905293319
32 -0.038955953313334
33 0.000002131104398
34 0.000001471565532
35 0.001851606399156
 Sym=      7.1
 Ene=       0.2024
 Spin= Alpha
 Occup=    0.000000
1 0.080974663554044
2 -0.21527632178577
3 -2.09090974469582
4 0.000004565727623
5 0.000007834532848
6 0.024098735848770
7 0.000140080795639
8 0.000256556787237
9 0.012442109037809
10 -0.013739129119041
11 -0.013766408669598
12 0.027505537788638
13 -0.000003747294976
14 -0.000195096261673
15 -0.000144422303190
16 0.055819225089662
17 1.01979034005712
18 -0.001264697660429
19 -0.018205974775604
20 0.001428305723067
21 0.055703566218619
22 1.01992890588459
23 -0.015141029215547
24 0.010177192175029
25 0.001456589134388
26 0.055598820413816
27 1.02059368213577
28 0.016392572804429
29 0.008001735497089
30 0.001578970153278
31 -0.093112215687169
32 0.031368957742491
33 0.000029160097205
34 0.000020771442321
35 -0.004333433844406
 Sym=      8.1
 Ene=       0.2699
 Spin= Alpha
 Occup=    0.000000
1 0.000006043656839
2 -0.000092429766569
3 -0.000128550571017
4 -0.021961098067697
5 -0.44347403815622
6 -0.001345926647854
7 -0.061756453277573
8 -1.24762005248114
9 -0.004007888917549
10 0.020928984687918
11 -0.020919375343197
12 -0.000009609344722
13 -0.003846263995477
14 0.000206264265567
15 0.002346328865733
16 0.021504051329113
17 2.19253991223717
18 -0.001830044018061
19 -0.027524873654884
20 0.000118135597045
21 -0.010935917100515
22 -1.13342173438458
23 0.010073046384908
24 -0.010584034653504
25 -0.000091581935032
26 -0.010230270530936
27 -1.05919482460918
28 -0.010563612646455
29 -0.008749088490047
30 -0.000162411613684
31 -0.000268111737340
32 0.000011552856025
33 0.000145903909508
34 0.003569903774736
35 -0.000010979002328
 Sym=      9.1
 Ene=       0.2699
 Spin= Alpha
 Occup=    0.000000
1 -0.000019923601571
2 0.000022430775470
3 0.000397535549164
4 0.44353459571417
5 -0.021962775406097
6 0.001650185678950
7 1.24710640468196
8 -0.061780165157005
9 0.004917273440038
10 -0.003310420472531
11 0.003323500523494
12 -0.000013080050962
13 -0.024153927204178
14 -0.002518064632325
15 0.000034735942839
16 -0.000483233786623
17 -0.042961870379419
18 0.003738790297828
19 0.000282684359181
20 0.000006658939685
21 -0.018593177058952
22 -1.87713855295129
23 0.020658775733129
24 -0.011623481563438
25 -0.000130884608820
26 0.018928232671897
27 1.91965191188423
28 0.022487949772283
29 0.009019319788757
30 0.000290442610494
31 0.000367294605841
32 -0.000041787136277
33 -0.003506993589732
34 0.000204552736656
35 0.000015566041045
 Sym=     10.1
 Ene=       0.6131
 Spin= Alpha
 Occup=    0.000000
1 -0.000224956756352
2 -0.000521636248081
3 0.001704469321806
4 -0.45113331167880
5 0.005894421642479
6 -0.002680127791234
7 1.68100732626391
8 -0.021951929466671
9 0.007146089721729
10 0.020252248776288
11 -0.020647730606618
12 0.000395481830330
13 0.12026408185959
14 0.004289717559372
15 0.000362715341873
16 -0.075481409413212
17 0.024311898902091
18 0.069913004753786
19 -0.005281774666431
20 0.000328271101792
21 -1.10902897206345
22 0.35389165134006
23 0.017489268785719
24 0.034527556240176
25 0.001432317452059
26 1.18020028475424
27 -0.37611225292146
28 0.009566822125181
29 -0.030512150779820
30 -0.001444648797898
31 -0.007137897150741
32 0.007328428918841
33 0.014009470820795
34 -0.000172591399386
35 -0.000260725229425
 Sym=     11.1
 Ene=       0.6134
 Spin= Alpha
 Occup=    0.000000
1 -0.000439685712778
2 -0.001033459313190
3 0.002949821467471
4 -0.005869513705904
5 -0.45123522868438
6 -0.002660181613900
7 0.021909825884149
8 1.68275284750438
9 0.005791875757128
10 0.10386992603821
11 -0.10455077405794
12 0.000680848019733
13 -0.023657403321662
14 0.000460661676716
15 0.003390512701274
16 -1.32461975297915
17 0.42129675036178
18 -0.004333692809904
19 -0.005488525747355
20 0.001463865180669
21 0.72217727994221
22 -0.22848719175839
23 0.035160417382277
24 0.047266708311471
25 -0.000599604022522
26 0.59387105469862
27 -0.18775642121145
28 -0.029560956635538
29 0.055419443952065
30 -0.000687712874658
31 -0.009213312709421
32 0.009646213614231
33 0.000192612174192
34 0.013991015663100
35 -0.000253809631744
 Sym=     12.1
 Ene=       0.6330
 Spin= Alpha
 Occup=    0.000000
1 -0.072076882434519
2 -0.15769567938184
3 0.55182355417453
4 0.003623905446740
5 0.003796391591791
6 -0.41915900354611
7 -0.008090094115867
8 -0.010366252351011
9 0.33493471206178
10 -0.060787167298273
11 -0.059682663058496
12 0.12046983035677
13 -0.000292908987101
14 -0.000710106953540
15 -0.000531546166067
16 -0.46516473187644
17 0.22747358293398
18 -0.003415765580434
19 -0.046850988291087
20 -0.015073167718600
21 -0.47208516860819
22 0.22932322340590
23 -0.039179958160294
24 0.025931575891942
25 -0.015041960443946
26 -0.48009268144389
27 0.23262459018115
28 0.042352614121921
29 0.020479585775568
30 -0.014929850860586
31 -1.77996510277034
32 1.93049811935441
33 -0.000056016326990
34 -0.000075956426348
35 -0.020915568733599
 Sym=     13.1
 Ene=       0.7224
 Spin= Alpha
 Occup=    0.000000
1 0.073726403451411
2 0.069007842404818
3 -0.43350056024641
4 0.004381601089423
5 0.002803613516173
6 -1.10853004933138
7 -0.005079937541065
8 -0.002094204591469
9 1.34272491490620
10 0.087771132765759
11 0.087796605299738
12 -0.17556773806550
13 0.000005770745598
14 0.001236161741337
15 0.000912266829964
16 0.74797643028756
17 -0.53052640563895
18 0.005347395844301
19 0.074947480528361
20 -0.040995095719210
21 0.74924286189744
22 -0.53001836553806
23 0.062354401000885
24 -0.041689412270148
25 -0.041121214464328
26 0.74946971466715
27 -0.53001517930864
28 -0.067176085333119
29 -0.032741641077613
30 -0.041630918987657
31 -0.21212421547602
32 0.16609133046457
33 -0.000014873447115
34 0.000000959932065
35 -0.032819657335094
 Sym=     14.1
 Ene=       0.7989
 Spin= Alpha
 Occup=    0.000000
1 0.029459658906755
2 -0.10653097010828
3 0.045509965520322
4 -0.002803717529641
5 -0.002513510615230
6 0.89787300976783
7 0.003093560766313
8 0.003646461851494
9 -1.18145171547754
10 0.087779909792514
11 0.087993006677870
12 -0.17577291647038
13 0.000012834399914
14 0.001459839135198
15 0.001079894203703
16 0.71920144073342
17 -0.66055829667372
18 0.005945152675027
19 0.088260309955217
20 0.029925516424223
21 0.71944446905218
22 -0.65943017560720
23 0.073250984245827
24 -0.049532913711000
25 0.029723197105615
26 0.71837592553332
27 -0.65893953919583
28 -0.079799438344059
29 -0.039020473500538
30 0.028843789209486
31 -1.16319591323341
32 1.45579092688786
33 -0.000085649883781
34 -0.000056864179658
35 0.095579180684456
 Sym=     15.1
 Ene=       0.9010
 Spin= Alpha
 Occup=    0.000000
1 -0.000048298641000
2 -0.000291959928673
3 0.000464593408295
4 -1.24254307068920
5 0.006846271150736
6 -0.004661736310959
7 2.30843622304495
8 -0.012719339749894
9 0.008798439033468
10 -0.059425547745348
11 0.059575965595408
12 -0.000150417850060
13 -0.33650742499002
14 -0.014683156609681
15 -0.001076966048731
16 0.037986351785704
17 -0.12824112900020
18 -0.069568052535509
19 0.023269494904880
20 -0.000688622577936
21 0.49586984009885
22 -1.67887708534426
23 0.17796287685230
24 -0.16750227181596
25 -0.006096435855545
26 -0.53327741130549
27 1.80631371498656
28 0.21916300469791
29 0.14242763597727
30 0.008111823416216
31 -0.000748253499089
32 0.000924598748687
33 0.000343068098535
34 0.000092145667843
35 -0.000063152963720
 Sym=     16.1
 Ene=       0.9010
 Spin= Alpha
 Occup=    0.000000
1 -0.000072330269137
2 -0.000299528966426
3 0.000419245556922
4 -0.006829595902301
5 -1.24253131742174
6 -0.003574573024555
7 0.012690119131465
8 2.30876084989865
9 0.006699624849185
10 -0.29134749695790
11 0.29133679388484
12 0.000010703073067
13 0.068781043627214
14 -0.001224903876780
15 -0.012142461118636
16 0.59422975336031
17 -2.01228479502753
18 0.024448041584134
19 0.28805547859337
20 -0.006620193256390
21 -0.33014186462086
22 1.11714125760697
23 -0.16623852876294
24 0.040487054439148
25 0.003654438191416
26 -0.26467444727472
27 0.89548043469215
28 0.14359151491437
29 -0.000841219318451
30 0.003945426596524
31 -0.000294530721932
32 0.000356794230025
33 0.000094716333229
34 0.000127176379924
35 -0.000076148850730
 Sym=     17.1
 Ene=       1.0701
 Spin= Alpha
 Occup=    0.000000
1 -0.79466470151483
2 -3.61024403453211
3 6.11584119791633
4 0.000193467943030
5 0.000249458447607
6 -0.024803255543623
7 -0.000310997587723
8 -0.000818712261790
9 0.012417248357857
10 0.022875217620642
11 0.023147303238147
12 -0.046022520858789
13 0.000037275808198
14 0.000184008425145
15 0.000128510718728
16 -0.17633567586591
17 -0.85484497943070
18 0.012961526342150
19 0.18693481334127
20 -0.007943184710992
21 -0.17642810220980
22 -0.85516857203449
23 0.15539510007763
24 -0.10461717959698
25 -0.008183910658380
26 -0.17626894245230
27 -0.85567309039424
28 -0.16825875361120
29 -0.082259701301362
30 -0.009259523862137
31 0.17866595321944
32 -0.23600955418197
33 -0.000132586145894
34 -0.000097519650885
35 -0.089646990305739
 Sym=     18.1
 Ene=       1.2150
 Spin= Alpha
 Occup=    0.000000
1 -0.000137205626587
2 -0.000576104299918
3 0.000950418054848
4 0.000121965257423
5 0.005222288969555
6 -0.000123506927083
7 0.000299019727250
8 0.013609145490223
9 0.000344433905633
10 -0.020927815634711
11 0.017571201929984
12 0.003356613704727
13 0.001919018074309
14 0.014056932044036
15 0.62567324017377
16 -0.014959734989593
17 0.003433256989682
18 -0.000280521958252
19 0.004422307291171
20 0.41155162639732
21 0.007793575284086
22 -0.001777937338677
23 -0.011648062714189
24 -0.012459093097962
25 -0.22246457536409
26 0.006611576396106
27 -0.001522394093156
28 0.011401748910314
29 -0.015245347194899
30 -0.18928529937215
31 0.001085839385937
32 -0.001361142548464
33 0.000108873612145
34 0.004970173072503
35 -0.000245288045213
 Sym=     19.1
 Ene=       1.2151
 Spin= Alpha
 Occup=    0.000000
1 -0.000163292829528
2 -0.000683425274835
3 0.001129431642703
4 0.005218451537215
5 -0.000114087099434
6 -0.000221616963934
7 0.013580319563649
8 -0.000316192678009
9 0.000449100805775
10 -0.008263856234767
11 0.003934049233368
12 0.004329807001399
13 -0.025810390568316
14 0.62558560942951
15 -0.014251193360883
16 -0.000918590894838
17 0.000233095430482
18 -0.021218912829381
19 0.001689325325449
20 0.019030533336359
21 -0.012666127798165
22 0.002922881797403
23 -0.003787549827279
24 -0.013225590464905
25 0.34682228443700
26 0.012894749398026
27 -0.002958952828556
28 0.001738224502556
29 0.012062039146578
30 -0.36594118099795
31 0.001399321623892
32 -0.001751183043203
33 0.004963743273422
34 -0.000115870575593
35 -0.000306549803345
 Sym=     20.1
 Ene=       1.5172
 Spin= Alpha
 Occup=    0.000000
1 -0.000201077746801
2 -0.000882955260782
3 0.001639089482850
4 0.016635351281778
5 0.007651451332712
6 0.000254007907350