[Molden Format]
[Molpro variables]
_NUMVAR=  1038.000000000000    
_AVOGAD= 0.6022140760000000E+24
_BOLTZ= 0.1380649000000000E-22
_CLIGHTSI=  299792458.0000000    
_JOULE= 0.4359744722207100E-17
_JPCAL=  4.184000000000000    
_PLANCK= 0.6626070150000000E-33
_BOHR= 0.5291772109030000E-10
_ECHARG= 0.1602176634000000E-18
_ENULL= 0.8854187812800001E-11
_MU= 0.1660539066600000E-26
_EMASS= 0.9109383701500001E-30
_AMU2AU=  1822.888486217313    
_CLIGHT=  29979245800.00000    
_EV= 0.3674932217565494E-01
_KJOULE= 0.3808798847133432E-03
_KJOULE/MOL= 0.3808798847133432E-03
_CM= 0.4556335252912009E-05
_CM-1= 0.4556335252912009E-05
_DEB2SI= 0.3335640951981520E-29
_KCAL= 0.1593601437640628E-02
_KCAL/MOL= 0.1593601437640628E-02
_KELVIN= 0.3166811563455608E-05
_HERTZ= 0.1519829846057038E-15
_HZ= 0.1519829846057038E-15
_TOA= 0.5291772109030000    
_TOANG= 0.5291772109030000    
_TORAD= 0.1745329251994330E-01
_TOCM=  219474.6313631965    
_TODEBYE=  2.541746473194078    
_TOE= 0.4803204712570263E-09
_TOEV=  27.21138624598803    
_TOHERTZ=  6579683920501656.    
_TOHZ=  6579683920501656.    
_TOK=  315775.0248040668    
_TOKCAL=  627.5094740630558    
_TOKELVIN=  315775.0248040668    
_TOKJ=  2625.499639479825    
_TOKJOULE=  2625.499639479825    
_TOKG= 0.1660539066600000E-26
_ANG=  1.889726124625770    
_ANGSTROM=  1.889726124625770    
_RPAREF=  0.000000000000000    
_RPADISS=  0.000000000000000    
_IGNORE_UNDEF=  2.000000000000000    
_STRICTCHECK=  0.000000000000000    
!SEWARD=  0.000000000000000    
!MULTI=  0.000000000000000    
!DFMULTI=  0.000000000000000    
_SEW_ONEEL=  0.000000000000000    
_CPPDONE=FALSE
_DKROLL_DONE=  0.000000000000000    
_FNUC_DONE=  0.000000000000000    
_FOCKDONE=  0.000000000000000    
_GRADONE=FALSE
_HESSDONE=FALSE
_INTDONE=TRUE
_SCFDONE=FALSE
_MODUL_BLOCK=FALSE
_MODUL_CUDA=FALSE
_MODUL_SLATER=FALSE
_MODUL_MRCC=TRUE
_MODUL_NBO6=FALSE
_MODUL_NECI=FALSE
_MODUL_AIMS=TRUE
_MODUL_GECCO=FALSE
_ISWINDOWS=FALSE
_MRCC_EXEC=/software/cinetica/mrcc/bin/dmrcc
_FITC_AO_SAVED=FALSE
_FITC_MO_SAVED=FALSE
_SHARED_FS=TRUE
_LSTYP=SEWARD
_INTYP=INTS
_GEOMTYP=ZMAT
_GRADTYP=ALASKA
_DIRECT=FALSE
_DKHO= -1.000000000000000    
_FNUC=  0.000000000000000    
_SYNCM=  0.000000000000000    
_BASIS=CC-PVDZ
_ZORIENT=  1.000000000000000    
!ZORIENT=  0.000000000000000    
_NELEC=  10.00000000000000    
!SPIN=  0.000000000000000    
_QSDSTEP=  0.000000000000000    
_QSDIRC=  0.000000000000000    
_PROGRAM=RS2
_CPUSTEP= 0.1299999999999999    
_SYSSTEP= 0.2999999999999992E-01
_WALLSTEP= 0.2800000000000000    
!DFMP2=  0.000000000000000    
!DFHFENERG=  0.000000000000000    
!SCSGRD=  0.000000000000000    
_CPUTOT= 0.9900000000000000    
_DMX= 0.1131841768926075E-03
_DMY= 0.2467837907724896E-04
_DMZ=-0.3690601954125969    
_EMP2= -40.22699455930629    
_ENERGR= -40.09064582051435    
_ENERGU= -40.21857031411996    
_ENERGY= -40.22699455930629    
_ENERGY_METHOD=RS2
_ENERGY_BASIS=cc-pVDZ
_GEOMETRY_METHOD=
_GEOMETRY_BASIS=
_ENERGY_AVRG= -40.09064582051435    
_ENUC=  11.74894145535203    
_GRADMETHOD=  9.000000000000000    
_NMRMETHOD=  0.000000000000000    
_NMRMAGNET=  0.000000000000000    
!GRID_FREEZE= -1.000000000000000    
!NEESE_INDEX=  0.000000000000000    
_ITERATIONS=  5.000000000000000    
_LASTNELEC=  2.000000000000000    
_LASTSPIN=  0.000000000000000    
_LASTSYM=  1.000000000000000    
_MPP_PROG=  1.000000000000000    
_MSNSTATES=  0.000000000000000    
_RS2PHASE=  0.000000000000000    
_IPROC_MPP=  0.000000000000000    
_IPROC_MPPX=  0.000000000000000    
_NPROC_MPP=  4.000000000000000    
_NPROC_MPPX=  4.000000000000000    
_NPROC_SMP=  1.000000000000000    
_NUMSTEP=  0.000000000000000    
_ORBITAL=  2140.200000000000    
_PI=  3.141592653589793    
!MCACT=  2.000000000000000    
!MCCLOSED=  4.000000000000000    
!MCFREEZE=  0.000000000000000    
!MCMS2=  0.000000000000000    
!MCNEL=  2.000000000000000    
!MCNSTSYM=  1.000000000000000    
!MCSTATE=  1.000000000000000    
!MCSYM=  1.000000000000000    
!MCWEIGHT=  1.000000000000000    
_SEIG_MIN= 0.1438074710983799E-01
_SEWPROP=TRUE
_STATUS=  1.000000000000000    
_SYSTOT= 0.3699999999999999    
_VERSION=  2022002.000000000    
_WALLTOT=  2.000000000000000    
_DATE=03-Jun-23
_LASTORB=MCSCF
_OUTPUT=/home/chimica2/cavallotti/qm/barrierless/vrc_autom/folders/ch3+h/dist_2.2/molpro.out
_PGROUP=C1
_TIME=08:59:38
_LIBMOL=/software/cinetica/molpro_2022.2/lib/
_VIGRDC=  0.000000000000000    
!VIBCNT=  0.000000000000000    
!RGHFCNT=  0.000000000000000    
!SURFREC=  0.000000000000000    
!XSURFREC=  0.000000000000000    
!XPOLYREC=  0.000000000000000    
!ROTREC=  0.000000000000000    
!POLYREC=  0.000000000000000    
!DIPREC=  0.000000000000000    
!DIP4DREC=  0.000000000000000    
!DIPROT=  0.000000000000000    
!DIP4DROT=  0.000000000000000    
!PTREC=  0.000000000000000    
!PT4DREC=  0.000000000000000    
!VSCFREC=  0.000000000000000    
!VCIREC=  0.000000000000000    
!PVCIREC=  0.000000000000000    
!VMP2REC=  0.000000000000000    
!VMCSCFREC=  0.000000000000000    
!VMRCIREC=  0.000000000000000    
!VIBSTATEREC=  0.000000000000000    
!VIBSTATECNT=  0.000000000000000    
!VIBINFO=  0.000000000000000    
!GAREC=  0.000000000000000    
!MCORB=  21402.00000000000    
!DEFCORE=  1.000000000000000    
!SCORE=  0.000000000000000    
!NEWMOL= -1.000000000000000    
!NEWSYM= -1.000000000000000    
_SLFILES=slscratch
_NGSSTO=  9.000000000000000    
_SIN=SIN
_COS=COS
_TAN=TAN
_ACOS=ACOS
_ASIN=ASIN
_ATAN=ATAN
_COSH=COSH
_SINH=SINH
_TANH=TANH
_ABS=ABS
_MOD=MOD
_ERF=ERF
_REFC=REFC
_ERFC=ERFC
_HYPOT=HYPOT
_J0=J0
_J1=J1
_JN=JN
_GAMMA=GAMMA
_LGAMMA=LGAMMA
_Y0=Y0
_Y1=Y1
_YN=YN
_EXP=EXP
_LOG=LOG
_LOG10=LOG10
_SQRT=SQRT
_INT=INT
_NINT=NINT
_MAX=MAX
_MIN=MIN
_COSMO=  0.000000000000000    
_COSMOIT=  0.000000000000000    
_COSMOES=  0.000000000000000    
_COSMOEDS=  0.000000000000000    
_COSMOEC=  0.000000000000000    
_COSMOEDCORR=  0.000000000000000    
_FEPSI=  1.000000000000000    
_SL_IsMM=  0.000000000000000    
_SL_NSYM=  1.000000000000000    
_SL_System_BitSw=  0.000000000000000    
_SL_Unique_atoms=  0.000000000000000    
_SL_GRAD=  0.000000000000000    
_SL_MAXUPD_Hess=  5.000000000000000    
_SL_N_PRINT_COD=  5.000000000000000    
_SL_PRINT_CODES=  0.000000000000000    
_SL_BasType=  0.000000000000000    
_SL_Energy_Pred=  0.000000000000000    
_SL_New_Coords=  0.000000000000000    
_SL_Total_Nuclea=  0.000000000000000    
_SL_Highest_Mltp=  0.000000000000000    
_SL_Ref_Geom=  0.000000000000000    
_SL_Symmetry_ope=  1.000000000000000    
_SL_agrad=  0.000000000000000    
_SL_GrdMax=  0.000000000000000    
_SL_GrdNorm=  0.000000000000000    
_SL_GrdRMS=  0.000000000000000    
_SL_Hss_Q=  0.000000000000000    
_SL_Hss_X=  0.000000000000000    
_SL_BMxOld=  0.000000000000000    
_SL_KtB=  0.000000000000000    
_SL_TROld=  0.000000000000000    
_SL_No_of_Intern=  0.000000000000000    
_SL_Hess=  0.000000000000000    
_SL_K=  0.000000000000000    
!LATTICE= -1.000000000000000    
!NEWLATTICE=  0.000000000000000    
!LATGRAD_VAR=FALSE
!SEW_LATTICE=  1.000000000000000    
!AIC_ONEEL=  0.000000000000000    
!LOCAL=  0.000000000000000    
!SAVEDOM= -1.000000000000000    
!RESTDOM= -1.000000000000000    
!SAVEDOM_HF= -1.000000000000000    
!RESTDOM_HF= -1.000000000000000    
!HESSREC=  0.000000000000000    
!FREQREC=  0.000000000000000    
!NMODREC=  0.000000000000000    
!GTASKS=  0.000000000000000    
!HTASKS=  0.000000000000000    
!SAVEDOM_EOM= -1.000000000000000    
!RESTDOM_EOM= -1.000000000000000    
!GRADSTATE= -1.000000000000000    
!DEBUG=  0.000000000000000    
!CFIT_CPHF=  0.000000000000000    
!RDOMAUX_CPHF=  0.000000000000000    
!THRAO_CPHF= 0.1000000000000000E-11
!THRMO_CPHF= 0.1000000000000000E-11
!THROV_CPHF= 0.1000000000000000E-11
!THRSW_CPHF= 0.1000000000000000E-11
!THRPROD_CPHF= 0.1000000000000000E-11
!THRAOPR_CPHF= 0.1000000000000000E-11
!CFIT_SCFGRD=  0.000000000000000    
!RDOMAUX_SCFGRD=  0.000000000000000    
!THRAO_SCFGRD= 0.1000000000000000E-11
!THRMO_SCFGRD= 0.1000000000000000E-11
!THROV_SCFGRD= 0.1000000000000000E-11
!THRSW_SCFGRD= 0.1000000000000000E-11
!THRPROD_SCFGRD= 0.1000000000000000E-11
!THRAOPR_SCFGRD= 0.1000000000000000E-11
!LOCFIT_SCF=  0.000000000000000    
!LOCFIT_MP2=  0.000000000000000    
_RIDOM=  0.000000000000000    
!CC2_METHOD=  0.000000000000000    
_BASIS2006=FALSE
_SVDDEL= -1.000000000000000    
_SVDDELA= -1.000000000000000    
_SVDDELP= -1.000000000000000    
_SVDDELF= -1.000000000000000    
_SVDDELS= -1.000000000000000    
_SVDDEL_ABS= -1.000000000000000    
_SVDDELA_ABS= -1.000000000000000    
_SVDDELP_ABS= -1.000000000000000    
_SVDDELF_ABS= -1.000000000000000    
_SVDDELS_ABS= -1.000000000000000    
_MAXBASIS=  0.000000000000000    
!OPT_CONICAL=  0.000000000000000    
!CLEARSP_JGRID=  0.000000000000000    
_GRDHYBR=  0.000000000000000    
_STATEGRAD=  1.000000000000000    
_4EXT_NDISKS=  1.000000000000000    
!EMBEDFLAG=  1.000000000000000    
!EMBED=FALSE
!EMBED_F12=FALSE
!EMBEDNUC=  0.000000000000000    
_EMBEDENERGY=  0.000000000000000    
!EMBED_DFC=FALSE
!NUM_VOIDS=  0.000000000000000    
_IBODY=  0.000000000000000    
_EMBE_CORR=  0.000000000000000    
!EMBED_PROJ=FALSE
!EMB_PROJ_ZMU=  1000000.000000000    
!CORRECTION_HF=  0.000000000000000    
!EMBED_AORB=  0.000000000000000    
!EMBED_NACORR=  0.000000000000000    
!EMBED_MP2=FALSE
!EMBED_TRUNC_PERTURBATION=FALSE
!EMBED_FROZEN=  0.000000000000000    
!EMBED_ACTIVE=  0.000000000000000    
_CHANGE_BASIS=FALSE
_RESTORE_BASIS=FALSE
_FIX_EMBED_GUESS=FALSE
_EMBED_SCF=FALSE
_HUZINAGA_T=FALSE
_HUZINAGA_F=FALSE
_HUZINAGA=FALSE
_HUZINAGA_CORRECT=FALSE
!FASTLATGRAD=  1.000000000000000    
!FASTVLAMBDA= -1.000000000000000    
!IFORCE= -1.000000000000000    
!USESYM= -1.000000000000000    
_SINDEX=  0.000000000000000    
_AVDOM_OSV=  0.000000000000000    
_AVDOM_PNO=  0.000000000000000    
_AVDOM_PAO=  0.000000000000000    
_AVDOM_LMO=  0.000000000000000    
_CC2OSV_FLAG=  0.000000000000000    
_EOMCCSD_CONV=FALSE
_TMADC2_FLAG=FALSE
_PROPADC2_FLAG=FALSE
_LEN_VirQ=  0.000000000000000    
_GRDCC2LR_FLAG=FALSE
_GRDADC2_FLAG=FALSE
_DMX_CC=-0.5216025203136354E-03
_DMY_CC= 0.2646598438091896E-03
_DMZ_CC=  2.636208467988370    
_DMX_NUC=-0.2453874990000382E-03
_DMY_NUC=-0.1253745958000028E-02
_DMZ_NUC=  1.256548200129000    
_RO_VGLOBAL=  0.000000000000000    
_OPT=FALSE
_FREQ=FALSE
_HESS=FALSE
_CMRCC_callName=EMPTY
_CMRCC_callCount=  0.000000000000000    
_GECCO_CIROOT=  1.000000000000000    
_SYM_CATION=  0.000000000000000    
_MON_A=FALSE
_MON_B=FALSE
R1=  1.078500000000000    
R2=  1.078600000000000    
R3=  1.078600000000000    
A2=  118.4540000000000    
A3=  118.4442000000000    
D3=  204.8451000000000    
DH1=  102.4061000000000    
ANG1=  97.28250000000000    
BB=  2.200000000000000    
GX1= 0.4147592585957197E-04
GY1= 0.2119108527669188E-03
GZ1=-0.2123844934461544    
GX2= 0.7931726099116664E-01
GY2=  2.020361500348611    
GZ2=-0.4701417125039219    
GX3=  1.709271876430847    
GY3= -1.079630812580358    
GZ3=-0.4711686564972884    
GX4= -1.788356234487379    
GY4=-0.9422799538287691    
GZ4=-0.4728472101750353    
GX5=-0.7271459902720850E-03
GY5=-0.9759450161195282E-03
GZ5=  3.945012739981215    
CBSEN= -40.22699455930629    
[Atoms] Angs
C     1    6         0.0000219481        0.0001121384       -0.1123890339
H     2    1         0.0419728869        1.0691292638       -0.2487882802
H     3    1         0.9045077242       -0.5713160222       -0.2493317155
H     4    1        -0.9463573643       -0.4986330779       -0.2502199679
H     5    1        -0.0003847891       -0.0005164479        2.0876108387
[GTO]
   1 0
 s    9  1.00
  0.6665000000D+04  0.6920001793D-03
  0.1000000000D+04  0.5329001381D-02
  0.2280000000D+03  0.2707700701D-01
  0.6471000000D+02  0.1017180264D+00
  0.2106000000D+02  0.2747400712D+00
  0.7495000000D+01  0.4485641162D+00
  0.2797000000D+01  0.2850740738D+00
  0.5215000000D+00  0.1520400394D-01
  0.1596000000D+00 -0.3191000827D-02
 s    9  1.00
  0.6665000000D+04 -0.1460000642D-03
  0.1000000000D+04 -0.1154000508D-02
  0.2280000000D+03 -0.5725002519D-02
  0.6471000000D+02 -0.2331201026D-01
  0.2106000000D+02 -0.6395502813D-01
  0.7495000000D+01 -0.1499810660D+00
  0.2797000000D+01 -0.1272620560D+00
  0.5215000000D+00  0.5445292395D+00
  0.1596000000D+00  0.5804962554D+00
 s    9  1.00
  0.6665000000D+04  0.0000000000D+00
  0.1000000000D+04  0.0000000000D+00
  0.2280000000D+03  0.0000000000D+00
  0.6471000000D+02  0.0000000000D+00
  0.2106000000D+02  0.0000000000D+00
  0.7495000000D+01  0.0000000000D+00
  0.2797000000D+01  0.0000000000D+00
  0.5215000000D+00  0.0000000000D+00
  0.1596000000D+00  0.1000000000D+01
 p    4  1.00
  0.9439000000D+01  0.3810902127D-01
  0.2002000000D+01  0.2094801169D+00
  0.5456000000D+00  0.5085572839D+00
  0.1517000000D+00  0.4688422617D+00
 p    4  1.00
  0.9439000000D+01  0.0000000000D+00
  0.2002000000D+01  0.0000000000D+00
  0.5456000000D+00  0.0000000000D+00
  0.1517000000D+00  0.1000000000D+01
 d    1  1.00
  0.5500000000D+00  0.1000000000D+01
  
   2 0
 s    4  1.00
  0.1301000000D+02  0.1968498999D-01
  0.1962000000D+01  0.1379769298D+00
  0.4446000000D+00  0.4781477569D+00
  0.1220000000D+00  0.5012397451D+00
 s    4  1.00
  0.1301000000D+02  0.0000000000D+00
  0.1962000000D+01  0.0000000000D+00
  0.4446000000D+00  0.0000000000D+00
  0.1220000000D+00  0.1000000000D+01
 p    1  1.00
  0.7270000000D+00  0.1000000000D+01
  
   3 0
 s    4  1.00
  0.1301000000D+02  0.1968498999D-01
  0.1962000000D+01  0.1379769298D+00
  0.4446000000D+00  0.4781477569D+00
  0.1220000000D+00  0.5012397451D+00
 s    4  1.00
  0.1301000000D+02  0.0000000000D+00
  0.1962000000D+01  0.0000000000D+00
  0.4446000000D+00  0.0000000000D+00
  0.1220000000D+00  0.1000000000D+01
 p    1  1.00
  0.7270000000D+00  0.1000000000D+01
  
   4 0
 s    4  1.00
  0.1301000000D+02  0.1968498999D-01
  0.1962000000D+01  0.1379769298D+00
  0.4446000000D+00  0.4781477569D+00
  0.1220000000D+00  0.5012397451D+00
 s    4  1.00
  0.1301000000D+02  0.0000000000D+00
  0.1962000000D+01  0.0000000000D+00
  0.4446000000D+00  0.0000000000D+00
  0.1220000000D+00  0.1000000000D+01
 p    1  1.00
  0.7270000000D+00  0.1000000000D+01
  
   5 0
 s    4  1.00
  0.1301000000D+02  0.1968498999D-01
  0.1962000000D+01  0.1379769298D+00
  0.4446000000D+00  0.4781477569D+00
  0.1220000000D+00  0.5012397451D+00
 s    4  1.00
  0.1301000000D+02  0.0000000000D+00
  0.1962000000D+01  0.0000000000D+00
  0.4446000000D+00  0.0000000000D+00
  0.1220000000D+00  0.1000000000D+01
 p    1  1.00
  0.7270000000D+00  0.1000000000D+01


[MO]
 Sym=      1.1
 Ene=     -11.2595
 Spin= Alpha
 Occup=    2.000000
1 1.00137193312500
2 0.007708884642270
3 -0.008236921425903
4 0.000000052144214
5 -0.000000167350838
6 -0.000300818546368
7 0.000000092039053
8 0.000001448914601
9 -0.000101887776126
10 0.000366969554647
11 0.000370805729256
12 -0.000737775283903
13 0.000000058775281
14 0.000000612330189
15 0.000000776663549
16 -0.000434623600126
17 0.001467183996403
18 0.000017980408627
19 0.000455749762274
20 -0.000094236177841
21 -0.000431238820694
22 0.001465733633911
23 0.000385493789509
24 -0.000242525002192
25 -0.000094113180102
26 -0.000431236678553
27 0.001465724985542
28 -0.000403182051225
29 -0.000211612627683
30 -0.000094464601302
31 0.000002500850720
32 0.000302281026114
33 0.000000025672007
34 0.000000032533101
35 -0.000304521972102
 Sym=      2.1
 Ene=      -0.9155
 Spin= Alpha
 Occup=    2.000000
1 -0.026236083288634
2 0.75966555812514
3 -0.15265309607455
4 0.000017274616887
5 -0.000068849786556
6 -0.068926437123733
7 0.000003652324563
8 0.000062577921713
9 0.013575199330516
10 0.001796916278129
11 0.001798209658516
12 -0.003595125936646
13 -0.000000036232595
14 0.000003208564712
15 0.000004220032737
16 0.35206433758980
17 -0.14830089558970
18 -0.001118439873033
19 -0.028503194105648
20 0.001622634995077
21 0.35206837425881
22 -0.14826486972318
23 -0.024113618126587
24 0.015227562388386
25 0.001636119809109
26 0.35208096263461
27 -0.14826647075593
28 0.025231662264615
29 0.013290631973010
30 0.001660339123505
31 0.013351240970237
32 -0.007414365803443
33 0.000000537884008
34 0.000000360200131
35 -0.002288128029584
 Sym=      3.1
 Ene=      -0.5819
 Spin= Alpha
 Occup=    2.000000
1 -0.000004898354002
2 0.000192832435193
3 0.000010998374538
4 0.005468686858907
5 0.65105155325965
6 0.000357369825052
7 -0.001048634725488
8 -0.12476146942424
9 -0.000078365322492
10 -0.020696567006201
11 0.020699966247844
12 -0.000003399241642
13 0.002624966795488
14 -0.000087999226735
15 -0.009237921676447
16 0.63480709656812
17 -0.18539500453897
18 -0.001265048656235
19 -0.022110492862254
20 0.003520017698269
21 -0.33440989778636
22 0.097665452814645
23 0.015710979634533
24 0.003031318768011
25 -0.001851751235395
26 -0.30051205631118
27 0.087764715374822
28 -0.014562654846891
29 0.005157377346875
30 -0.001677009416651
31 0.000020612994423
32 -0.000009592607761
33 0.000010047448505
34 0.001244608903440
35 -0.000003112259440
 Sym=      4.1
 Ene=      -0.5816
 Spin= Alpha
 Occup=    2.000000
1 -0.000000814073637
2 0.000022169297692
3 0.000005173282191
4 0.65106237717936
5 -0.005468753023515
6 0.000308224998907
7 -0.12457752983861
8 0.001045746116103
9 -0.000063366611468
10 -0.002268369137287
11 0.002274907983425
12 -0.000006538846137
13 -0.023940733187328
14 -0.009267228562842
15 0.000067421989702
16 0.019568894578040
17 -0.005710332417932
18 0.012846386973462
19 -0.001186153341636
20 0.000114240099080
21 0.53994547248394
22 -0.15757359206472
23 -0.012283979510366
24 0.015795320751801
25 0.003006421839027
26 -0.55952309106471
27 0.16328645167723
28 -0.014405666586977
29 -0.014492671766961
30 -0.003128707378248
31 0.000015201849145
32 -0.000007969748945
33 0.001244110304285
34 -0.000010857674409
35 -0.000002014891159
 Sym=      5.1
 Ene=      -0.2953
 Spin= Alpha
 Occup=    1.703974
1 -0.002922178356795
2 0.039206197734194
3 0.037990273964599
4 -0.000284795175824
5 -0.000331284042447
6 0.53643919913644
7 -0.000021597798289
8 -0.000021953504857
9 0.054122376778674
10 -0.007559976672590
11 -0.007570985060026
12 0.015130961732616
13 0.000000840963799
14 -0.000008657952376
15 -0.000016782668393
16 -0.060552305885712
17 0.013161394892464
18 0.000074946181579
19 0.002062486955320
20 0.011807142777510
21 -0.060480039103804
22 0.013163994195419
23 0.001743937344561
24 -0.001110950615958
25 0.011800020614147
26 -0.060440813930547
27 0.013169309556961
28 -0.001836307887230
29 -0.000969742464666
30 0.011797125000428
31 0.62355301740922
32 0.043297918019428
33 0.000000663839708
34 0.000000790477943
35 -0.003217841448318
 Sym=      6.1
 Ene=       0.0503
 Spin= Alpha
 Occup=    0.296026
1 0.002794673883432
2 -0.14695020569632
3 -0.071122337254373
4 0.000342636316973
5 0.000403040562403
6 -0.73455775301383
7 0.000031774506684
8 0.000026131584704
9 -0.069539983195924
10 0.006863284250349
11 0.006869368337861
12 -0.013732652588210
13 0.000000279251905
14 0.000012785885396
15 0.000022992656498
16 0.027326571951952
17 -0.008828705950414
18 0.000020328523509
19 0.000368935827551
20 -0.014153142110928
21 0.027310067951782
22 -0.008835583388331
23 0.000311628419887
24 -0.000187390985257
25 -0.014144573177260
26 0.027360070605463
27 -0.008839578457829
28 -0.000310817457230
29 -0.000161347218405
30 -0.014142782859377
31 0.90420837044612
32 -0.11082681461755
33 -0.000000099635874
34 -0.000000564720785
35 0.004430629346647
 Sym=      7.1
 Ene=       0.2011
 Spin= Alpha
 Occup=    0.000000
1 0.083482785666107
2 -0.19170713117676
3 -2.10926563670379
4 -0.000030152738295
5 0.000033284835202
6 0.11048714273601
7 -0.000007558229888
8 0.000387262097095
9 0.13282968070093
10 -0.011038451865865
11 -0.011105038448551
12 0.022143490314415
13 -0.000000851329337
14 -0.000022765141497
15 -0.000035949156970
16 0.060778260616091
17 1.02377507084145
18 -0.000660496566363
19 -0.016737157475402
20 0.005308622191249
21 0.060589685123552
22 1.02391866063252
23 -0.014166415423447
24 0.008914341748462
25 0.005309751928469
26 0.060545603765704
27 1.02401900957276
28 0.014815400588051
29 0.007777916938818
30 0.005323897404946
31 -0.10278346960501
32 -0.000552616116239
33 0.000002413140393
34 0.000000090924677
35 -0.001982149473385
 Sym=      8.1
 Ene=       0.2661
 Spin= Alpha
 Occup=    0.000000
1 -0.000013453517351
2 -0.000179627149036
3 -0.000018817301349
4 -0.007085473534642
5 -0.45167835101975
6 -0.000238029219459
7 -0.019198217125042
8 -1.22447227603057
9 -0.000703797791949
10 0.019224343419370
11 -0.019201401396361
12 -0.000022942023009
13 -0.002274908603379
14 0.000207128126840
15 0.012593042232017
16 0.032985352067571
17 2.17125513412767
18 -0.000977761027775
19 -0.027089255033255
20 0.001443014433234
21 -0.016940683102162
22 -1.13008655592682
23 0.010324484639796
24 -0.010091490007314
25 -0.000756706898326
26 -0.015613789028449
27 -1.04154499641716
28 -0.010068517586212
29 -0.008805937826163
30 -0.000706991327357
31 0.000000492971486
32 -0.000001124424664
33 0.000035950294806
34 0.002534959643798
35 0.000006430183755
 Sym=      9.1
 Ene=       0.2661
 Spin= Alpha
 Occup=    0.000000
1 -0.000002260906627
2 0.000013044358513
3 0.000038359810569
4 0.45180645012788
5 -0.007086466220947
6 0.000207496130798
7 1.22339778898744
8 -0.019198707221906
9 0.000615443014996
10 -0.001957483153185
11 0.001963502949073
12 -0.000006019795888
13 -0.022168112101053
14 -0.012595090701901
15 0.000187997160949
16 -0.000813421788859
17 -0.051078837419064
18 0.003623701676746
19 0.000496053221525
20 -0.000033872572140
21 -0.028580608723926
22 -1.85389478955241
23 0.020565187785662
24 -0.010810690590216
25 -0.001248310488932
26 0.029336238727615
27 1.90497679199517
28 0.021846284809904
29 0.009592992107813
30 0.001300705797618
31 0.000032801823571
32 -0.000028772103307
33 -0.002509565597803
34 0.000043182861936
35 0.000000759217419
 Sym=     10.1
 Ene=       0.6010
 Spin= Alpha
 Occup=    0.000000
1 -0.000022537678719
2 -0.000065698756170
3 0.000063679641556
4 -0.45041906721492
5 0.000603022423755
6 -0.000036106550460
7 1.65488941169786
8 -0.002208337730811
9 0.000681189307704
10 0.011890131327187
11 -0.011932548335466
12 0.000042417008279
13 0.11781193983423
14 0.024989166672897
15 0.000017635678673
16 -0.049917393552935
17 0.016915552780734
18 0.063633816090015
19 -0.002698493970916
20 0.000337243168742
21 -1.11319647186672
22 0.37507531100922
23 0.014359060495198
24 0.030963185999415
25 0.006795413312420
26 1.16273534224248
27 -0.39150941286087
28 0.009787913313684
29 -0.028382350514305
30 -0.007075030377840
31 0.000282823418545
32 -0.000477174843926
33 0.047277748309683
34 -0.000057681470610
35 -0.000024764954392
 Sym=     11.1
 Ene=       0.6015
 Spin= Alpha
 Occup=    0.000000
1 -0.000217121838848
2 -0.000381467550956
3 0.001081018766170
4 -0.000606859341018
5 -0.45062368158677
6 0.000871067486311
7 0.002240000032865
8 1.65859760420686
9 -0.001055885381442
10 0.10190313530554
11 -0.10227281697617
12 0.000369681670635
13 -0.013785496221489
14 0.000084332960126
15 0.024898323343124
16 -1.31609550244231
17 0.44006588003849
18 -0.002634617033359
19 -0.005162395255147
20 0.008096183560429
21 0.69820629306297
22 -0.23216901178756
23 0.031041884580017
24 0.044400592605630
25 -0.004186275560788
26 0.61194395096159
27 -0.20335415975966
28 -0.028288750596317
29 0.048984314378828
30 -0.003684928763206
31 -0.001661556230050
32 0.001945942584183
33 0.000069352083610
34 0.047338418021439
35 -0.000102855278364
 Sym=     12.1
 Ene=       0.6516
 Spin= Alpha
 Occup=    0.000000
1 -0.028598834885203
2 -0.26185779094233
3 0.097091845139663
4 0.000169721339686
5 -0.000631146721523
6 -0.48374301708873
7 -0.000327176382532
8 0.003107398398217
9 1.04174504106715
10 0.037999761707034
11 0.037886007089408
12 -0.075885768796442
13 -0.000056713882254
14 0.000071971393797
15 0.000144332262939
16 0.38774431574133
17 -0.15119376955477
18 0.001570095334018
19 0.040132696724485
20 -0.037605797811171
21 0.39138566851736
22 -0.15163642631445
23 0.033958923448329
24 -0.021304860855754
25 -0.037640430076145
26 0.39114222397508
27 -0.15148291659786
28 -0.035470318341375
29 -0.018544829419467
30 -0.037638173347792
31 1.69402187523528
32 -2.21158918558104
33 0.000003470529296
34 0.000110306826105
35 -0.022087814199641
 Sym=     13.1
 Ene=       0.7265
 Spin= Alpha
 Occup=    0.000000
1 0.13620604949237
2 0.30517807166136
3 -0.90164811418951
4 0.000233188092945
5 -0.000553090176551
6 -0.60724630889308
7 0.000078611592070
8 0.003305683760211
9 0.68064245679075
10 0.10901489255595
11 0.10906894494376
12 -0.21808383749971
13 0.000033658481124
14 0.000186518885895
15 0.000285231010970
16 0.87442412841548
17 -0.61191263221093
18 0.002771954279338
19 0.070020612440422
20 -0.000353955512103
21 0.87691420647149
22 -0.61086063442482
23 0.059191650865593
24 -0.037234703718456
25 -0.000418319553532
26 0.87733189460145
27 -0.61087852226240
28 -0.061926275801890
29 -0.032508925080480
30 -0.000501527672938
31 -1.13977425281760
32 1.33546550655521
33 -0.000001821532656
34 0.000088114996749
35 0.097601419235679
 Sym=     14.1
 Ene=       0.8117
 Spin= Alpha
 Occup=    0.000000
1 0.015464816580872
2 0.24806265591396
3 -0.47393885975062
4 0.000764534000680
5 0.001471340670017
6 -1.26172593447474
7 -0.001034589523655
8 -0.003028287841071
9 1.53198353222392
10 -0.089386675877233
11 -0.090025225732174
12 0.17941190160941
13 0.000052253067709
14 -0.000163873335952
15 -0.000232884132735
16 -0.57441265065691
17 0.63993083505722
18 -0.004326192762227
19 -0.11127421450318
20 -0.029908338764609
21 -0.57506235637044
22 0.63827006672847
23 -0.093957648768024
24 0.059338741842529
25 -0.029842972584254
26 -0.57479006991164
27 0.63768035468431
28 0.098302890416336
29 0.051740154237045
30 -0.029747286208435
31 -0.43090579805856
32 0.065370812331675
33 0.000003060557617
34 -0.000043541123494
35 -0.11456768743494
 Sym=     15.1
 Ene=       0.8891
 Spin= Alpha
 Occup=    0.000000
1 0.000036707277358
2 0.000188155342952
3 -0.000346298451158
4 -1.23755137037554
5 0.007407414028205
6 -0.000770415905133
7 2.29493645542163
8 -0.013741017231595
9 0.001312688712316
10 -0.032423787169294
11 0.032452580454236
12 -0.000028793284942
13 -0.33426828585381
14 -0.073943445226150
15 0.000296263032039
16 0.020054987871212
17 -0.067208650705397
18 -0.074787848099495
19 0.012315053031265
20 -0.001431996290250
21 0.51448979842478
22 -1.72030988778684
23 0.18178605793241
24 -0.16203796171543
25 -0.035832291667182
26 -0.53481597388832
27 1.78793294007529
28 0.20429292620201
29 0.14785894736292
30 0.037423537555151
31 -0.000268797552153
32 0.000233556825671
33 0.027619703032276
34 -0.000152190323823
35 -0.000005732956559
 Sym=     16.1
 Ene=       0.8893
 Spin= Alpha
 Occup=    0.000000
1 0.000058084116559
2 0.000376125886273
3 -0.000698459403972
4 -0.007396735219154
5 -1.23741982396304
6 -0.001108204706333
7 0.013716893912782
8 2.29548627490561
9 0.001836494348189
10 -0.28939235443365
11 0.28922808707809
12 0.000164267355562
13 0.037494082151884
14 -0.000586442252740
15 -0.073620953205028
16 0.60561898440660
17 -2.02522420735605
18 0.013586820224441
19 0.28247328284558
20 -0.041992222511912
21 -0.32124005370060
22 1.07206328111779
23 -0.16079710097047
24 0.025830825333554
25 0.022210175121329
26 -0.28632640428988
27 0.95538053168539
28 0.14907234210707
29 0.003314315341059
30 0.019925688627006
31 -0.000169048528480
32 -0.000031099324974
33 0.000177860579259
34 0.027558696054357
35 -0.000098800260202
 Sym=     17.1
 Ene=       1.0599
 Spin= Alpha
 Occup=    0.000000
1 -0.74787804409473
2 -3.42767143547188
3 5.73298274201281
4 0.000003001616611
5 0.000159113133527
6 -0.090252290319323
7 0.000030067959468
8 -0.000833072121988
9 -0.097458795401948
10 0.002402873474583
11 0.003094365477181
12 -0.005497238951764
13 0.000001151895914
14 0.000023423557593
15 -0.000071286101870
16 -0.088146250156835
17 -0.86504902752045
18 0.006766768020843
19 0.17199362732708
20 -0.043039480127141
21 -0.088403485907444
22 -0.86494664785797
23 0.14543762247827
24 -0.091776741746112
25 -0.042988149710608
26 -0.088444739391858
27 -0.86486016764807
28 -0.15211897003851
29 -0.080084854290834
30 -0.043141533143387
31 -0.37199441389929
32 0.27070124482833
33 -0.000005510750680
34 -0.000031317043172
35 -0.20938993451280
 Sym=     18.1
 Ene=       1.1967
 Spin= Alpha
 Occup=    0.000000
1 -0.000000576715400
2 -0.000020295210020
3 -0.000100685060287
4 -0.000017044317268
5 0.052009516076939
6 0.000105268309108
7 -0.000022455224721
8 0.030080782232691
9 0.000045947724002
10 -0.12101632735368
11 0.12013176360172
12 0.000884563751958
13 0.016252605831410
14 -0.000295370317214
15 0.60522111018539
16 -0.081820965769445
17 0.040728538849769
18 0.005821811338451
19 0.026955079320179
20 0.38431191226157
21 0.043801747903373
22 -0.021773409064789
23 -0.068680834596933
24 -0.081185114769535
25 -0.20563222164006
26 0.038184337272370
27 -0.018998526819663
28 0.062914552453090
29 -0.091576856181102
30 -0.17918734417285
31 -0.000105267766085
32 0.000046141704526
33 -0.000052951900328
34 0.10106966243480
35 -0.000289028286760
 Sym=     19.1
 Ene=       1.1970
 Spin= Alpha
 Occup=    0.000000
1 0.000073288503091
2 0.000311595691396
3 -0.000576811126065
4 0.051892584005678
5 0.000023206416267
6 0.000033594079728
7 0.029943399409266
8 0.000000910258716
9 0.000035254260804
10 -0.014863599621763
11 0.014290510095817
12 0.000573089525946
13 -0.13973662713429
14 0.60533575801785
15 0.000173520124940
16 -0.003170281347637
17 0.001672070249245
18 -0.12434051031415
19 0.005933279313329
20 0.015162386953253
21 -0.068997162369253
22 0.034424536285074
23 -0.016002115299116
24 -0.068723349017505
25 0.32527772324491
26 0.072363430879173
27 -0.035948011775123
28 -0.005268189395120
29 0.062732618186469
30 -0.34055905792086
31 0.000006214095108
32 -0.000038657866236
33 0.10110194591377
34 0.000025333556337
35 -0.000150360944924
 Sym=     20.1
 Ene=       1.5315
 Spin= Alpha
 Occup=    0.000000
1 -0.000006078352750
2 -0.000035194878541
3 -0.000030243941748
4 -0.000487810521631
5 0.15131858624795
6 0.000104697424373
7 -0.000279599184926