
 Working directory              : /scratch/cc/139150/molpro.JEJxegGH9o/
 Global scratch directory       : /scratch/cc/139150/molpro.JEJxegGH9o/
 Wavefunction directory         : /home/chimica2/cavallotti/wfu/
 Main file repository           : /scratch/cc/139150/molpro.JEJxegGH9o/

 id        : polimi

 Nodes     nprocs
 node-6-10    4
 GA implementation: MPI file
 GA implementation (serial work in mppx): MPI file

 Using customized tuning parameters: mindgm=1; mindgv=20; mindgc=4; mindgr=1; noblas=0; minvec=7
 default implementation of scratch files=sf  


 Variables initialized (1015), CPU time= 0.01 sec
  memory,         400 ,m
   nosym
  geometry={angstrom
    C1
    H2   C1   R1
    H3   C1   R2   H2   A2
    H4   C1   R3   H2   A3   H3   D3
    C21 C1 BB H2 ANG1 H3 DH1
    H22 C21 R21 C1 ANG2 H2 DH2
    H23 C21 R22 H22 A22 C1 DH3
    H24 C21 R23 H22 A23 H23 D23
  }
  R1                             =    1.0782000000000000
  R2                             =    1.0782000000000000
  R3                             =    1.0783000000000000
  A2                             =    119.51630000000000
  A3                             =    119.48920000000000
  D3                             =    194.03090000000000
  R21                            =    1.0782000000000000
  R22                            =    1.0782000000000000
  R23                            =    1.0782000000000000
  A22                            =    119.50600000000000
  A23                            =    119.50290000000000
  D23                            =    166.02709999999999
  ANG2                           =    94.085499999999996
  DH3                            =    96.986400000000003
  DH2                            =    58.792999999999999
  DH1                            =    97.072100000000006
  ANG1                           =    94.023799999999994
  BB                             =    3.0000000000000000
 
   basis=cc-pvdz
   {multi;closed, 8;occ,10;wf, 18,1,0,;state,1;maxiter,40}
   {RS2,SHIFT=0.2;ORBITAL,IGNORE_ERROR;STATE,1}
   CBSen = energy
  put,molden,molpro.molden
 Commands initialized (834), CPU time= 0.02 sec, 672 directives.
 Default parameters read. Elapsed time= 0.19 sec

 Checking input...
 Passed
1


                                         ***  PROGRAM SYSTEM MOLPRO  ***
                                       Copyright, TTI GmbH Stuttgart, 2015
                                    Version 2022.2 linked Thu Sep 29 12:37:28 2022


 **********************************************************************************************************************************
 LABEL *                                                                                 
  64 bit mpp version                                                                     DATE: 27-May-23          TIME: 09:34:42  
 **********************************************************************************************************************************

 SHA1:             51306cdc306ce2a111a2867affebcb289530e0a7
 **********************************************************************************************************************************

 Memory per process:       400 MW
 Total memory per node:   1600 MW

 GA preallocation disabled
 GA check disabled

 Variable memory set to 400.0 MW

 ZSYMEL=NOSYM

 SETTING R1             =         1.07820000                                  
 SETTING R2             =         1.07820000                                  
 SETTING R3             =         1.07830000                                  
 SETTING A2             =       119.51630000                                  
 SETTING A3             =       119.48920000                                  
 SETTING D3             =       194.03090000                                  
 SETTING R21            =         1.07820000                                  
 SETTING R22            =         1.07820000                                  
 SETTING R23            =         1.07820000                                  
 SETTING A22            =       119.50600000                                  
 SETTING A23            =       119.50290000                                  
 SETTING D23            =       166.02710000                                  
 SETTING ANG2           =        94.08550000                                  
 SETTING DH3            =        96.98640000                                  
 SETTING DH2            =        58.79300000                                  
 SETTING DH1            =        97.07210000                                  
 SETTING ANG1           =        94.02380000                                  
 SETTING BB             =         3.00000000                                  
 SETTING BASIS          =    CC-PVDZ


 Recomputing integrals since basis changed


 Using spherical harmonics

 Library entry C      S cc-pVDZ              selected for orbital group  1
 Library entry C      P cc-pVDZ              selected for orbital group  1
 Library entry C      D cc-pVDZ              selected for orbital group  1
 Library entry H      S cc-pVDZ              selected for orbital group  2
 Library entry H      P cc-pVDZ              selected for orbital group  2


 PROGRAM * SEWARD (Integral evaluation for generally contracted gaussian basis sets)     Author: Roland Lindh, 1990

 Geometry written to block  1 of record 700

 Orientation using atomic masses  
 Molecule type: Asymmetric top
 Rotational constants:       6.9633709      6.9634031     72.2450131 GHz  (calculated with average atomic masses)

 Point group  C1  



 ATOMIC COORDINATES

 NR  ATOM    CHARGE       X              Y              Z

   1  C1      6.00    0.000031896    0.000074296   -2.834528696
   2  H2      1.00    1.423409555    1.450931728   -2.977448373
   3  H3      1.00    0.544093272   -1.957907449   -2.981912509
   4  H4      1.00   -1.968067536    0.508055853   -2.978496568
   5  C21     6.00    0.000012414   -0.000116065    2.834649675
   6  H22     1.00   -0.503368756    1.968877080    2.979875975
   7  H23     1.00    1.956977185   -0.548819876    2.978282178
   8  H24     1.00   -1.453571743   -1.420639603    2.978257671

 Bond lengths in Bohr (Angstrom)

 1-2  2.037502708  1-3  2.037502708  1-4  2.037691680  5-6  2.037502708  5-7  2.037502708
     ( 1.078200000)     ( 1.078200000)     ( 1.078300000)     ( 1.078200000)     ( 1.078200000)

 5-8  2.037502708
     ( 1.078200000)

 Bond angles

  2-1-3  119.51630000   2-1-4  119.48920000   3-1-4  119.49558723   6-5-7  119.50600000

  6-5-8  119.50290000   7-5-8  119.50450127

 NUCLEAR CHARGE:                   18
 NUMBER OF PRIMITIVE AOS:          96
 NUMBER OF SYMMETRY AOS:           94
 NUMBER OF CONTRACTIONS:           58   (   58A   )
 NUMBER OF INNER CORE ORBITALS:     0   (    0A   )
 NUMBER OF OUTER CORE ORBITALS:     2   (    2A   )
 NUMBER OF VALENCE ORBITALS:       14   (   14A   )


 NUCLEAR REPULSION ENERGY   32.93745544

 Eigenvalues of metric

         1 0.132E-01 0.160E-01 0.348E-01 0.348E-01 0.356E-01 0.356E-01 0.413E-01 0.425E-01


 Contracted 2-electron integrals neglected if value below      1.0D-11
 AO integral compression algorithm  1   Integral accuracy      1.0D-11

     7.602 MB (compressed) written to integral file ( 52.8%)

     Node minimum: 1.573 MB, node maximum: 2.621 MB


 NUMBER OF SORTED TWO-ELECTRON INTEGRALS:     365512.     BUFFER LENGTH:  32768
 NUMBER OF SEGMENTS:   1  SEGMENT LENGTH:     365512      RECORD LENGTH: 524288

 Memory used in sort:       0.92 MW

 SORT1 READ     1710147. AND WROTE      354483. INTEGRALS IN      2 RECORDS. CPU TIME:     0.04 SEC, REAL TIME:     0.06 SEC
 SORT2 READ     1416571. AND WROTE     1464616. INTEGRALS IN     40 RECORDS. CPU TIME:     0.03 SEC, REAL TIME:     0.05 SEC

 Node minimum:      365512.  Node maximum:      366796. integrals

 OPERATOR DM      FOR CENTER  0  COORDINATES:    0.000000    0.000000    0.000000


 **********************************************************************************************************************************
 DATASETS  * FILE   NREC   LENGTH (MB)   RECORD NAMES
              1      18       28.78       500      610      700      900      950      970     1000      129      960     1100   
                                          VAR    BASINP    GEOM    SYMINP    ZMAT    AOBASIS   BASIS     P2S    ABASIS      S 
                                         1400     1410     1200     1210     1080     1600     1650     1700   
                                           T        V       H0       H01     AOSYM     SMH    MOLCAS    OPER   

 PROGRAMS   *        TOTAL       INT
 CPU TIMES  *         0.67      0.45
 REAL TIME  *         1.20 SEC
 DISK USED  *        29.15 MB (local),      154.23 MB (total)
 GA USED    *         0.00 MB       (max)       0.00 MB       (current)
 **********************************************************************************************************************************

 PROGRAM * MULTI (Direct Multiconfiguration SCF)       Authors: P.J. Knowles, H.-J. Werner (1984)
                                                                D.A. Kreplin, P.J. Knowles, H.-J. Werner (2019)

 Number of closed-shell orbitals:   8 (    8)
 Number of active  orbitals:        2 (    2)
 Number of external orbitals:      48 (   48)

 State symmetry 1

 Number of active electrons:   2    Spin symmetry=Singlet   Space symmetry=1
 Number of states:             1
 Number of CSFs:               3   (4 determinants, 4 intermediate states)

 Orbital guess generated from atomic densities. Full valence occupancy:   16

 Wavefunction dump at record             2140.2

 Convergence thresholds  0.10E-04 (gradient)  0.10E-05 (energy)
 
 Number of orbital rotations:  496  ( 16 closed/active, 384 closed/virtual, 0 active/active, 96 active/virtual )
 Total number of variables:    500
 
 Second-order MCSCF: L-BFGS accelerated
 
 ITER  MIC  NCI  NEG     ENERGY(VAR)    ENERGY(PROJ) ENERGY CHANGE       GRAD(0)  GRAD(ORB)   GRAD(CI)      STEP      TIME
   1    5    4    0    -79.11299817     -79.12919399   -0.01619582    0.18123049 0.00071831 0.00000000  0.10E+00      0.37
   2    7    6    0    -79.12913724     -79.12914058   -0.00000334    0.00277211 0.00000006 0.00000000  0.14E-02      0.87
   3    5    4    0    -79.12914058     -79.12914058   -0.00000000    0.00000107 0.00000000 0.00000000  0.66E-06      1.22

 CONVERGENCE REACHED!  Final gradient:    0.00000000 ( 0.62E-10)
                       Final energy:    -79.12914058
 
 First order charge density matrix for state 1.1 saved on record 2140.2 (density set 1)
 
 Results for state 1.1
 =====================
 !MCSCF STATE 1.1 Energy                       -79.129140581683
 Nuclear energy                                 32.93745544
 Kinetic energy                                 78.92428936
 One electron energy                          -170.37000771
 Two electron energy                            58.30341169
 Virial ratio                                    2.00259554
 
 !MCSCF STATE 1.1 Dipole moment                 -0.00000396     0.00006524    -0.00021469
 Dipole moment /Debye                           -0.00001005     0.00016584    -0.00054569
 
 No non-zero expectation values
 
 
 Natural orbital dump at molpro section 2140.2 (Orbital set 2)


 **********************************************************************************************************************************
 DATASETS  * FILE   NREC   LENGTH (MB)   RECORD NAMES
              1      19       30.97       500      610      700      900      950      970     1000      129      960     1100   
                                          VAR    BASINP    GEOM    SYMINP    ZMAT    AOBASIS   BASIS     P2S    ABASIS      S 
                                         1400     1410     1200     1210     1080     1600     1650     1700     1380   
                                           T        V       H0       H01     AOSYM     SMH    MOLCAS    OPER     JKOP   

              2       4        0.54       700     1000      520     2140   
                                         GEOM     BASIS   MCVARS    MCSCF   

 PROGRAMS   *        TOTAL     MULTI       INT
 CPU TIMES  *         1.27      0.60      0.45
 REAL TIME  *         2.59 SEC
 DISK USED  *        31.56 MB (local),      163.87 MB (total)
 SF USED    *         7.24 MB
 GA USED    *         0.00 MB       (max)       0.00 MB       (current)
 **********************************************************************************************************************************


 PROGRAM * RS2 (Multireference RS Perturbation Theory)     Authors: H.-J. Werner (1993), P. Celani (1998)


 Level shift= 0.20

 Convergence thresholds:  THRVAR = 1.00D-08  THRDEN = 1.00D-06

 Number of optimized states: 1  Roots:    1
 Number of reference states: 1  Roots:    1

 Reference symmetry:                   1   Singlet 
 Number of electrons:                 18
 Maximum number of shells:             4
 Maximum number of spin couplings:     5

 Reference space:        3 conf        3 CSFs
 N elec internal:       36 conf       36 CSFs
 N-1 el internal:       62 conf       98 CSFs
 N-2 el internal:       76 conf      184 CSFs

 Number of electrons in valence space:                     14
 Maximum number of open shell orbitals in reference space:  2
 Maximum number of open shell orbitals in internal spaces:  6


 Number of core orbitals:           2 (   2 )
 Number of closed-shell orbitals:   6 (   6 )
 Number of active  orbitals:        2 (   2 )
 Number of external orbitals:      48 (  48 )

 Molecular orbitals read from record     2140.2  Type=MCSCF/NATURAL (state 1.1)

 Integral transformation finished. Total CPU:   0.03 sec, npass=  1  Memory used:   0.33 MW


 Number of p-space configurations:   3

 Reference wavefunction optimized for reference space (refopt=1)

 State     Reference Energy 
     1       -79.12914058

 Number of blocks in overlap matrix:     2   Smallest eigenvalue:  0.10D+01
 Number of N-2 electron functions:      61
 Number of N-1 electron functions:      98

 Number of internal configurations:                   36
 Number of singly external configurations:          4704
 Number of doubly external configurations:         70440
 Total number of contracted configurations:        75180
 Total number of uncontracted configurations:     216660

 Weight factors for SA-density in H0:    1.000000

 FIMAX=  0.15D-01  FXMAX=  0.94D-13  DIAG=  F  T  NOREF=1  NOINT=0  IHPPD=2

 Nuclear energy:                      32.93745544
 Core energy:                        -76.08294695
 Zeroth-order valence energy:         -8.38734804
 Zeroth-order total energy:          -51.53283955
 First-order energy:                 -27.59630104

 Using uncontracted singles

 Diagonal Coupling coefficients finished.               Storage:    3121 words, CPU-Time:      0.00 seconds.
 Energy denominators for pairs finished in 0 passes.    Storage:    7322 words, CPU-time:      0.00 seconds.

 A level shift of 0.20 is applied.

  ITER. STATE  ROOT     SQ.NORM     CORR.ENERGY   TOTAL ENERGY   ENERGY CHANGE       DEN1      VAR(S)    VAR(P)      TIME
    1     1     1     1.01324485    -0.00264897   -79.13178955    -0.00264897    -0.25431695  0.13D-01  0.71D-01     0.06
    2     1     1     1.08434935    -0.27115623   -79.40029681    -0.26850726     0.00015051  0.28D-04  0.19D-04     0.08
    3     1     1     1.08426900    -0.27122766   -79.40036824    -0.00007143    -0.00005120  0.11D-06  0.52D-07     0.08
    4     1     1     1.08429815    -0.27123377   -79.40037435    -0.00000611     0.00000071  0.43D-09  0.27D-09     0.09
    5     1     1     1.08429788    -0.27123371   -79.40037429     0.00000007    -0.00000017  0.23D-11  0.11D-11     0.10

 Energies without level shift correction:

    5     1     1     1.08429788    -0.25437413   -79.38351471

 Energy contributions for state 1.1:
 ===================================

            Energy contr.      SQ.Norm of FOWF
 Space I     -0.00036507          0.00021730
 Space S     -0.02723584          0.01310464
 Space P     -0.22677321          0.07097595


 =====================================
 Analysis of CPU times by interactions
 =====================================

       I      S      P

 I   0.0%
 S  10.0%   0.0%
 P   0.0%   0.0%  30.0%

 Initialization:  60.0%
 Other:            0.0%

 Total CPU:        0.1 seconds
 =====================================



 Reference coefficients greater than 0.0500000
 =============================================
 22222220           0.8609229
 22222202          -0.5087354


 RESULTS FOR STATE 1.1
 =====================

 Coefficient of reference function:   C(0) = 1.00000000 (fixed)   1.00000000 (relaxed)

 Energy contributions of configuration classes

 CLASS          SQ.NORM        ECORR1        ECORR2
 +++++++++++++++++++++++++++++++++++++++++++++++++++
 Internals    0.00021730   -0.00036507    0.27045517
 Singles      0.01310464   -0.02723585   -0.05808200
 Pairs        0.07097595   -0.22677321   -0.48360687
 Total        1.08429788   -0.25437413   -0.27123371
 +++++++++++++++++++++++++++++++++++++++++++++++++++


 Reference energy                     -79.12914058
 Nuclear energy                        32.93745544
 Kinetic energy                        79.10476828
 One electron energy                 -170.25276344
 Two electron energy                   57.91493372
 Virial quotient                       -1.00373689
 Correlation energy                    -0.27123371
 !RSPT2 STATE 1.1 Energy              -79.400374287903

 Properties without orbital relaxation:

 !RSPT2 STATE 1.1 Dipole moment        -0.00000633     0.00006768    -0.00021948
 Dipole moment /Debye                  -0.00001609     0.00017202    -0.00055786


 **********************************************************************************************************************************
 DATASETS  * FILE   NREC   LENGTH (MB)   RECORD NAMES
              1      19       30.97       500      610      700      900      950      970     1000      129      960     1100   
                                          VAR    BASINP    GEOM    SYMINP    ZMAT    AOBASIS   BASIS     P2S    ABASIS      S 
                                         1400     1410     1200     1210     1080     1600     1650     1700     1380   
                                           T        V       H0       H01     AOSYM     SMH    MOLCAS    OPER     JKOP   

              2       4        0.54       700     1000      520     2140   
                                         GEOM     BASIS   MCVARS    MCSCF   

 PROGRAMS   *        TOTAL       RS2     MULTI       INT
 CPU TIMES  *         1.44      0.17      0.60      0.45
 REAL TIME  *         3.10 SEC
 DISK USED  *        31.56 MB (local),      163.87 MB (total)
 SF USED    *         8.77 MB
 GA USED    *         0.00 MB       (max)       0.00 MB       (current)
 **********************************************************************************************************************************
 SETTING CBSEN          =       -79.40037429  AU                              

 Dump information in style MOLDEN to molpro.molden                                                                   

 Molecular orbitals read from record     2140.2  Type=MCSCF/NATURAL (state 1.1)
 Occupation numbers read from record     2140.2  Type=MCSCF/NATURAL (state 1.1)
 Orbital energies read from record       2140.2  Type=MCSCF/NATURAL (state 1.1)
 Redundancy group numbers read from rec  2140.2  Type=MCSCF/NATURAL (state 1.1)

 DUMP ORBITAL  1.1 AS ORBITAL    1  occ=    2.0000  eig=  -11.2303  GROUP=   2
 DUMP ORBITAL  2.1 AS ORBITAL    2  occ=    2.0000  eig=  -11.2303  GROUP=   2
 DUMP ORBITAL  3.1 AS ORBITAL    3  occ=    2.0000  eig=   -0.9033  GROUP=   2
 DUMP ORBITAL  4.1 AS ORBITAL    4  occ=    2.0000  eig=   -0.8882  GROUP=   2
 DUMP ORBITAL  5.1 AS ORBITAL    5  occ=    2.0000  eig=   -0.5702  GROUP=   2
 DUMP ORBITAL  6.1 AS ORBITAL    6  occ=    2.0000  eig=   -0.5702  GROUP=   2
 DUMP ORBITAL  7.1 AS ORBITAL    7  occ=    2.0000  eig=   -0.5615  GROUP=   2
 DUMP ORBITAL  8.1 AS ORBITAL    8  occ=    2.0000  eig=   -0.5615  GROUP=   2
 DUMP ORBITAL  9.1 AS ORBITAL    9  occ=    1.4824  eig=   -0.1880  GROUP=   3
 DUMP ORBITAL 10.1 AS ORBITAL   10  occ=    0.5176  eig=    0.0023  GROUP=   3

 Total charge:      18.000000

 **********************************************************************************************************************************

 RS2/cc-pVDZ energy=    -79.400374287903

             RS2           MULTI
    -79.40037429    -79.12914058
 **********************************************************************************************************************************
 Molpro calculation terminated
