[Molden Format]
[Molpro variables]
_NUMVAR=  1056.000000000000    
_AVOGAD= 0.6022140760000000E+24
_BOLTZ= 0.1380649000000000E-22
_CLIGHTSI=  299792458.0000000    
_JOULE= 0.4359744722207100E-17
_JPCAL=  4.184000000000000    
_PLANCK= 0.6626070150000000E-33
_BOHR= 0.5291772109030000E-10
_ECHARG= 0.1602176634000000E-18
_ENULL= 0.8854187812800001E-11
_MU= 0.1660539066600000E-26
_EMASS= 0.9109383701500001E-30
_AMU2AU=  1822.888486217313    
_CLIGHT=  29979245800.00000    
_EV= 0.3674932217565494E-01
_KJOULE= 0.3808798847133432E-03
_KJOULE/MOL= 0.3808798847133432E-03
_CM= 0.4556335252912009E-05
_CM-1= 0.4556335252912009E-05
_DEB2SI= 0.3335640951981520E-29
_KCAL= 0.1593601437640628E-02
_KCAL/MOL= 0.1593601437640628E-02
_KELVIN= 0.3166811563455608E-05
_HERTZ= 0.1519829846057038E-15
_HZ= 0.1519829846057038E-15
_TOA= 0.5291772109030000    
_TOANG= 0.5291772109030000    
_TORAD= 0.1745329251994330E-01
_TOCM=  219474.6313631965    
_TODEBYE=  2.541746473194078    
_TOE= 0.4803204712570263E-09
_TOEV=  27.21138624598803    
_TOHERTZ=  6579683920501656.    
_TOHZ=  6579683920501656.    
_TOK=  315775.0248040668    
_TOKCAL=  627.5094740630558    
_TOKELVIN=  315775.0248040668    
_TOKJ=  2625.499639479825    
_TOKJOULE=  2625.499639479825    
_TOKG= 0.1660539066600000E-26
_ANG=  1.889726124625770    
_ANGSTROM=  1.889726124625770    
_RPAREF=  0.000000000000000    
_RPADISS=  0.000000000000000    
_IGNORE_UNDEF=  2.000000000000000    
_STRICTCHECK=  0.000000000000000    
!SEWARD=  0.000000000000000    
!MULTI=  0.000000000000000    
!DFMULTI=  0.000000000000000    
_SEW_ONEEL=  0.000000000000000    
_CPPDONE=FALSE
_DKROLL_DONE=  0.000000000000000    
_FNUC_DONE=  0.000000000000000    
_FOCKDONE=  0.000000000000000    
_GRADONE=FALSE
_HESSDONE=FALSE
_INTDONE=TRUE
_SCFDONE=FALSE
_MODUL_BLOCK=FALSE
_MODUL_CUDA=FALSE
_MODUL_SLATER=FALSE
_MODUL_MRCC=TRUE
_MODUL_NBO6=FALSE
_MODUL_NECI=FALSE
_MODUL_AIMS=TRUE
_MODUL_GECCO=FALSE
_ISWINDOWS=FALSE
_MRCC_EXEC=/software/cinetica/mrcc/bin/dmrcc
_FITC_AO_SAVED=FALSE
_FITC_MO_SAVED=FALSE
_SHARED_FS=TRUE
_LSTYP=SEWARD
_INTYP=INTS
_GEOMTYP=ZMAT
_GRADTYP=ALASKA
_DIRECT=FALSE
_DKHO= -1.000000000000000    
_FNUC=  0.000000000000000    
_SYNCM=  0.000000000000000    
_BASIS=CC-PVDZ
_ZORIENT=  1.000000000000000    
!ZORIENT=  0.000000000000000    
_NELEC=  18.00000000000000    
!SPIN=  0.000000000000000    
_QSDSTEP=  0.000000000000000    
_QSDIRC=  0.000000000000000    
_PROGRAM=RS2
_CPUSTEP= 0.1700000000000002    
_SYSSTEP= 0.6999999999999995E-01
_WALLSTEP= 0.5100000000000000    
!DFMP2=  0.000000000000000    
!DFHFENERG=  0.000000000000000    
!SCSGRD=  0.000000000000000    
_CPUTOT=  1.440000000000000    
_DMX=-0.6329860745527167E-05
_DMY= 0.6767615209813879E-04
_DMZ=-0.2194805516917021E-03
_EMP2= -79.40037428790326    
_ENERGR= -79.12914058168252    
_ENERGU= -79.38351471102700    
_ENERGY= -79.40037428790326    
_ENERGY_METHOD=RS2
_ENERGY_BASIS=cc-pVDZ
_GEOMETRY_METHOD=
_GEOMETRY_BASIS=
_ENERGY_AVRG= -79.12914058168253    
_ENUC=  32.93745544173682    
_GRADMETHOD=  9.000000000000000    
_NMRMETHOD=  0.000000000000000    
_NMRMAGNET=  0.000000000000000    
!GRID_FREEZE= -1.000000000000000    
!NEESE_INDEX=  0.000000000000000    
_ITERATIONS=  4.000000000000000    
_LASTNELEC=  2.000000000000000    
_LASTSPIN=  0.000000000000000    
_LASTSYM=  1.000000000000000    
_MPP_PROG=  1.000000000000000    
_MSNSTATES=  0.000000000000000    
_RS2PHASE=  0.000000000000000    
_IPROC_MPP=  0.000000000000000    
_IPROC_MPPX=  0.000000000000000    
_NPROC_MPP=  4.000000000000000    
_NPROC_MPPX=  4.000000000000000    
_NPROC_SMP=  1.000000000000000    
_NUMSTEP=  0.000000000000000    
_ORBITAL=  2140.200000000000    
_PI=  3.141592653589793    
!MCACT=  2.000000000000000    
!MCCLOSED=  8.000000000000000    
!MCFREEZE=  0.000000000000000    
!MCMS2=  0.000000000000000    
!MCNEL=  2.000000000000000    
!MCNSTSYM=  1.000000000000000    
!MCSTATE=  1.000000000000000    
!MCSYM=  1.000000000000000    
!MCWEIGHT=  1.000000000000000    
_SEIG_MIN= 0.1317000909869277E-01
_SEWPROP=TRUE
_STATUS=  1.000000000000000    
_SYSTOT= 0.5500000000000000    
_VERSION=  2022002.000000000    
_WALLTOT=  3.100000000000000    
_DATE=27-May-23
_LASTORB=MCSCF
_OUTPUT=/home/chimica2/cavallotti/qm/barrierless/vrc_autom/folders/ch3+ch3/dist_3.0/molpro.out
_PGROUP=C1
_TIME=09:34:42
_LIBMOL=/software/cinetica/molpro_2022.2/lib/
_VIGRDC=  0.000000000000000    
!VIBCNT=  0.000000000000000    
!RGHFCNT=  0.000000000000000    
!SURFREC=  0.000000000000000    
!XSURFREC=  0.000000000000000    
!XPOLYREC=  0.000000000000000    
!ROTREC=  0.000000000000000    
!POLYREC=  0.000000000000000    
!DIPREC=  0.000000000000000    
!DIP4DREC=  0.000000000000000    
!DIPROT=  0.000000000000000    
!DIP4DROT=  0.000000000000000    
!PTREC=  0.000000000000000    
!PT4DREC=  0.000000000000000    
!VSCFREC=  0.000000000000000    
!VCIREC=  0.000000000000000    
!PVCIREC=  0.000000000000000    
!VMP2REC=  0.000000000000000    
!VMCSCFREC=  0.000000000000000    
!VMRCIREC=  0.000000000000000    
!VIBSTATEREC=  0.000000000000000    
!VIBSTATECNT=  0.000000000000000    
!VIBINFO=  0.000000000000000    
!GAREC=  0.000000000000000    
!MCORB=  21402.00000000000    
!DEFCORE=  2.000000000000000    
!SCORE=  0.000000000000000    
!NEWMOL= -1.000000000000000    
!NEWSYM= -1.000000000000000    
_SLFILES=slscratch
_NGSSTO=  9.000000000000000    
_SIN=SIN
_COS=COS
_TAN=TAN
_ACOS=ACOS
_ASIN=ASIN
_ATAN=ATAN
_COSH=COSH
_SINH=SINH
_TANH=TANH
_ABS=ABS
_MOD=MOD
_ERF=ERF
_REFC=REFC
_ERFC=ERFC
_HYPOT=HYPOT
_J0=J0
_J1=J1
_JN=JN
_GAMMA=GAMMA
_LGAMMA=LGAMMA
_Y0=Y0
_Y1=Y1
_YN=YN
_EXP=EXP
_LOG=LOG
_LOG10=LOG10
_SQRT=SQRT
_INT=INT
_NINT=NINT
_MAX=MAX
_MIN=MIN
_COSMO=  0.000000000000000    
_COSMOIT=  0.000000000000000    
_COSMOES=  0.000000000000000    
_COSMOEDS=  0.000000000000000    
_COSMOEC=  0.000000000000000    
_COSMOEDCORR=  0.000000000000000    
_FEPSI=  1.000000000000000    
_SL_IsMM=  0.000000000000000    
_SL_NSYM=  1.000000000000000    
_SL_System_BitSw=  0.000000000000000    
_SL_Unique_atoms=  0.000000000000000    
_SL_GRAD=  0.000000000000000    
_SL_MAXUPD_Hess=  5.000000000000000    
_SL_N_PRINT_COD=  5.000000000000000    
_SL_PRINT_CODES=  0.000000000000000    
_SL_BasType=  0.000000000000000    
_SL_Energy_Pred=  0.000000000000000    
_SL_New_Coords=  0.000000000000000    
_SL_Total_Nuclea=  0.000000000000000    
_SL_Highest_Mltp=  0.000000000000000    
_SL_Ref_Geom=  0.000000000000000    
_SL_Symmetry_ope=  1.000000000000000    
_SL_agrad=  0.000000000000000    
_SL_GrdMax=  0.000000000000000    
_SL_GrdNorm=  0.000000000000000    
_SL_GrdRMS=  0.000000000000000    
_SL_Hss_Q=  0.000000000000000    
_SL_Hss_X=  0.000000000000000    
_SL_BMxOld=  0.000000000000000    
_SL_KtB=  0.000000000000000    
_SL_TROld=  0.000000000000000    
_SL_No_of_Intern=  0.000000000000000    
_SL_Hess=  0.000000000000000    
_SL_K=  0.000000000000000    
!LATTICE= -1.000000000000000    
!NEWLATTICE=  0.000000000000000    
!LATGRAD_VAR=FALSE
!SEW_LATTICE=  1.000000000000000    
!AIC_ONEEL=  0.000000000000000    
!LOCAL=  0.000000000000000    
!SAVEDOM= -1.000000000000000    
!RESTDOM= -1.000000000000000    
!SAVEDOM_HF= -1.000000000000000    
!RESTDOM_HF= -1.000000000000000    
!HESSREC=  0.000000000000000    
!FREQREC=  0.000000000000000    
!NMODREC=  0.000000000000000    
!GTASKS=  0.000000000000000    
!HTASKS=  0.000000000000000    
!SAVEDOM_EOM= -1.000000000000000    
!RESTDOM_EOM= -1.000000000000000    
!GRADSTATE= -1.000000000000000    
!DEBUG=  0.000000000000000    
!CFIT_CPHF=  0.000000000000000    
!RDOMAUX_CPHF=  0.000000000000000    
!THRAO_CPHF= 0.1000000000000000E-11
!THRMO_CPHF= 0.1000000000000000E-11
!THROV_CPHF= 0.1000000000000000E-11
!THRSW_CPHF= 0.1000000000000000E-11
!THRPROD_CPHF= 0.1000000000000000E-11
!THRAOPR_CPHF= 0.1000000000000000E-11
!CFIT_SCFGRD=  0.000000000000000    
!RDOMAUX_SCFGRD=  0.000000000000000    
!THRAO_SCFGRD= 0.1000000000000000E-11
!THRMO_SCFGRD= 0.1000000000000000E-11
!THROV_SCFGRD= 0.1000000000000000E-11
!THRSW_SCFGRD= 0.1000000000000000E-11
!THRPROD_SCFGRD= 0.1000000000000000E-11
!THRAOPR_SCFGRD= 0.1000000000000000E-11
!LOCFIT_SCF=  0.000000000000000    
!LOCFIT_MP2=  0.000000000000000    
_RIDOM=  0.000000000000000    
!CC2_METHOD=  0.000000000000000    
_BASIS2006=FALSE
_SVDDEL= -1.000000000000000    
_SVDDELA= -1.000000000000000    
_SVDDELP= -1.000000000000000    
_SVDDELF= -1.000000000000000    
_SVDDELS= -1.000000000000000    
_SVDDEL_ABS= -1.000000000000000    
_SVDDELA_ABS= -1.000000000000000    
_SVDDELP_ABS= -1.000000000000000    
_SVDDELF_ABS= -1.000000000000000    
_SVDDELS_ABS= -1.000000000000000    
_MAXBASIS=  0.000000000000000    
!OPT_CONICAL=  0.000000000000000    
!CLEARSP_JGRID=  0.000000000000000    
_GRDHYBR=  0.000000000000000    
_STATEGRAD=  1.000000000000000    
_4EXT_NDISKS=  1.000000000000000    
!EMBEDFLAG=  1.000000000000000    
!EMBED=FALSE
!EMBED_F12=FALSE
!EMBEDNUC=  0.000000000000000    
_EMBEDENERGY=  0.000000000000000    
!EMBED_DFC=FALSE
!NUM_VOIDS=  0.000000000000000    
_IBODY=  0.000000000000000    
_EMBE_CORR=  0.000000000000000    
!EMBED_PROJ=FALSE
!EMB_PROJ_ZMU=  1000000.000000000    
!CORRECTION_HF=  0.000000000000000    
!EMBED_AORB=  0.000000000000000    
!EMBED_NACORR=  0.000000000000000    
!EMBED_MP2=FALSE
!EMBED_TRUNC_PERTURBATION=FALSE
!EMBED_FROZEN=  0.000000000000000    
!EMBED_ACTIVE=  0.000000000000000    
_CHANGE_BASIS=FALSE
_RESTORE_BASIS=FALSE
_FIX_EMBED_GUESS=FALSE
_EMBED_SCF=FALSE
_HUZINAGA_T=FALSE
_HUZINAGA_F=FALSE
_HUZINAGA=FALSE
_HUZINAGA_CORRECT=FALSE
!FASTLATGRAD=  1.000000000000000    
!FASTVLAMBDA= -1.000000000000000    
!IFORCE= -1.000000000000000    
!USESYM= -1.000000000000000    
_SINDEX=  0.000000000000000    
_AVDOM_OSV=  0.000000000000000    
_AVDOM_PNO=  0.000000000000000    
_AVDOM_PAO=  0.000000000000000    
_AVDOM_LMO=  0.000000000000000    
_CC2OSV_FLAG=  0.000000000000000    
_EOMCCSD_CONV=FALSE
_TMADC2_FLAG=FALSE
_PROPADC2_FLAG=FALSE
_LEN_VirQ=  0.000000000000000    
_GRDCC2LR_FLAG=FALSE
_GRDADC2_FLAG=FALSE
_DMX_CC= 0.2917385624789937E-03
_DMY_CC=-0.3584705009269662E-03
_DMZ_CC= 0.1187718229034296E-02
_DMX_NUC=-0.2621583420001627E-03
_DMY_NUC= 0.2471199069999930E-03
_DMZ_NUC=-0.7157549019991549E-03
_RO_VGLOBAL=  0.000000000000000    
_OPT=FALSE
_FREQ=FALSE
_HESS=FALSE
_CMRCC_callName=EMPTY
_CMRCC_callCount=  0.000000000000000    
_GECCO_CIROOT=  1.000000000000000    
_SYM_CATION=  0.000000000000000    
_MON_A=FALSE
_MON_B=FALSE
R1=  1.078200000000000    
R2=  1.078200000000000    
R3=  1.078300000000000    
A2=  119.5163000000000    
A3=  119.4892000000000    
D3=  194.0309000000000    
R21=  1.078200000000000    
R22=  1.078200000000000    
R23=  1.078200000000000    
A22=  119.5060000000000    
A23=  119.5029000000000    
D23=  166.0271000000000    
ANG2=  94.08550000000000    
DH3=  96.98640000000000    
DH2=  58.79300000000000    
DH1=  97.07210000000001    
ANG1=  94.02379999999999    
BB=  3.000000000000000    
GX1= 0.3189613456125451E-04
GY1= 0.7429597445257619E-04
GZ1= -2.834528696103161    
GX2=  1.423409555384433    
GY2=  1.450931728160405    
GZ2= -2.977448372776304    
GX3= 0.5440932719414956    
GY3= -1.957907449201842    
GZ3= -2.981912508893688    
GX4= -1.968067535626008    
GY4= 0.5080558527014417    
GZ4= -2.978496568282723    
GX5= 0.1241443577634782E-04
GY5=-0.1160647165560358E-03
GZ5=  2.834649674544693    
GX6=-0.5033687556622102    
GY6=  1.968877079662711    
GZ6=  2.979875974984536    
GX7=  1.956977185425842    
GY7=-0.5488198757806275    
GZ7=  2.978282178487156    
GX8= -1.453571743231042    
GY8= -1.420639603175674    
GZ8=  2.978257670926679    
CBSEN= -79.40037428790326    
[Atoms] Angs
C     1    6         0.0000168787        0.0000393157       -1.4999679896
H     2    1         0.7532358985        0.7678000051       -1.5755978255
H     3    1         0.2879217601       -1.0360800032       -1.5779601446
H     4    1        -1.0414564894        0.2688515791       -1.5761525067
C     5    6         0.0000065694       -0.0000614188        1.5000320087
H     6    1        -0.2663712742        1.0418848816        1.5768824573
H     7    1         1.0355877288       -0.2904229712        1.5760390565
H     8    1        -0.7691970409       -0.7517701029        1.5760260877
[GTO]
   1 0
 s    9  1.00
  0.6665000000D+04  0.6920001793D-03
  0.1000000000D+04  0.5329001381D-02
  0.2280000000D+03  0.2707700701D-01
  0.6471000000D+02  0.1017180264D+00
  0.2106000000D+02  0.2747400712D+00
  0.7495000000D+01  0.4485641162D+00
  0.2797000000D+01  0.2850740738D+00
  0.5215000000D+00  0.1520400394D-01
  0.1596000000D+00 -0.3191000827D-02
 s    9  1.00
  0.6665000000D+04 -0.1460000642D-03
  0.1000000000D+04 -0.1154000508D-02
  0.2280000000D+03 -0.5725002519D-02
  0.6471000000D+02 -0.2331201026D-01
  0.2106000000D+02 -0.6395502813D-01
  0.7495000000D+01 -0.1499810660D+00
  0.2797000000D+01 -0.1272620560D+00
  0.5215000000D+00  0.5445292395D+00
  0.1596000000D+00  0.5804962554D+00
 s    9  1.00
  0.6665000000D+04  0.0000000000D+00
  0.1000000000D+04  0.0000000000D+00
  0.2280000000D+03  0.0000000000D+00
  0.6471000000D+02  0.0000000000D+00
  0.2106000000D+02  0.0000000000D+00
  0.7495000000D+01  0.0000000000D+00
  0.2797000000D+01  0.0000000000D+00
  0.5215000000D+00  0.0000000000D+00
  0.1596000000D+00  0.1000000000D+01
 p    4  1.00
  0.9439000000D+01  0.3810902127D-01
  0.2002000000D+01  0.2094801169D+00
  0.5456000000D+00  0.5085572839D+00
  0.1517000000D+00  0.4688422617D+00
 p    4  1.00
  0.9439000000D+01  0.0000000000D+00
  0.2002000000D+01  0.0000000000D+00
  0.5456000000D+00  0.0000000000D+00
  0.1517000000D+00  0.1000000000D+01
 d    1  1.00
  0.5500000000D+00  0.1000000000D+01
  
   2 0
 s    4  1.00
  0.1301000000D+02  0.1968498999D-01
  0.1962000000D+01  0.1379769298D+00
  0.4446000000D+00  0.4781477569D+00
  0.1220000000D+00  0.5012397451D+00
 s    4  1.00
  0.1301000000D+02  0.0000000000D+00
  0.1962000000D+01  0.0000000000D+00
  0.4446000000D+00  0.0000000000D+00
  0.1220000000D+00  0.1000000000D+01
 p    1  1.00
  0.7270000000D+00  0.1000000000D+01
  
   3 0
 s    4  1.00
  0.1301000000D+02  0.1968498999D-01
  0.1962000000D+01  0.1379769298D+00
  0.4446000000D+00  0.4781477569D+00
  0.1220000000D+00  0.5012397451D+00
 s    4  1.00
  0.1301000000D+02  0.0000000000D+00
  0.1962000000D+01  0.0000000000D+00
  0.4446000000D+00  0.0000000000D+00
  0.1220000000D+00  0.1000000000D+01
 p    1  1.00
  0.7270000000D+00  0.1000000000D+01
  
   4 0
 s    4  1.00
  0.1301000000D+02  0.1968498999D-01
  0.1962000000D+01  0.1379769298D+00
  0.4446000000D+00  0.4781477569D+00
  0.1220000000D+00  0.5012397451D+00
 s    4  1.00
  0.1301000000D+02  0.0000000000D+00
  0.1962000000D+01  0.0000000000D+00
  0.4446000000D+00  0.0000000000D+00
  0.1220000000D+00  0.1000000000D+01
 p    1  1.00
  0.7270000000D+00  0.1000000000D+01
  
   5 0
 s    9  1.00
  0.6665000000D+04  0.6920001793D-03
  0.1000000000D+04  0.5329001381D-02
  0.2280000000D+03  0.2707700701D-01
  0.6471000000D+02  0.1017180264D+00
  0.2106000000D+02  0.2747400712D+00
  0.7495000000D+01  0.4485641162D+00
  0.2797000000D+01  0.2850740738D+00
  0.5215000000D+00  0.1520400394D-01
  0.1596000000D+00 -0.3191000827D-02
 s    9  1.00
  0.6665000000D+04 -0.1460000642D-03
  0.1000000000D+04 -0.1154000508D-02
  0.2280000000D+03 -0.5725002519D-02
  0.6471000000D+02 -0.2331201026D-01
  0.2106000000D+02 -0.6395502813D-01
  0.7495000000D+01 -0.1499810660D+00
  0.2797000000D+01 -0.1272620560D+00
  0.5215000000D+00  0.5445292395D+00
  0.1596000000D+00  0.5804962554D+00
 s    9  1.00
  0.6665000000D+04  0.0000000000D+00
  0.1000000000D+04  0.0000000000D+00
  0.2280000000D+03  0.0000000000D+00
  0.6471000000D+02  0.0000000000D+00
  0.2106000000D+02  0.0000000000D+00
  0.7495000000D+01  0.0000000000D+00
  0.2797000000D+01  0.0000000000D+00
  0.5215000000D+00  0.0000000000D+00
  0.1596000000D+00  0.1000000000D+01
 p    4  1.00
  0.9439000000D+01  0.3810902127D-01
  0.2002000000D+01  0.2094801169D+00
  0.5456000000D+00  0.5085572839D+00
  0.1517000000D+00  0.4688422617D+00
 p    4  1.00
  0.9439000000D+01  0.0000000000D+00
  0.2002000000D+01  0.0000000000D+00
  0.5456000000D+00  0.0000000000D+00
  0.1517000000D+00  0.1000000000D+01
 d    1  1.00
  0.5500000000D+00  0.1000000000D+01
  
   6 0
 s    4  1.00
  0.1301000000D+02  0.1968498999D-01
  0.1962000000D+01  0.1379769298D+00
  0.4446000000D+00  0.4781477569D+00
  0.1220000000D+00  0.5012397451D+00
 s    4  1.00
  0.1301000000D+02  0.0000000000D+00
  0.1962000000D+01  0.0000000000D+00
  0.4446000000D+00  0.0000000000D+00
  0.1220000000D+00  0.1000000000D+01
 p    1  1.00
  0.7270000000D+00  0.1000000000D+01
  
   7 0
 s    4  1.00
  0.1301000000D+02  0.1968498999D-01
  0.1962000000D+01  0.1379769298D+00
  0.4446000000D+00  0.4781477569D+00
  0.1220000000D+00  0.5012397451D+00
 s    4  1.00
  0.1301000000D+02  0.0000000000D+00
  0.1962000000D+01  0.0000000000D+00
  0.4446000000D+00  0.0000000000D+00
  0.1220000000D+00  0.1000000000D+01
 p    1  1.00
  0.7270000000D+00  0.1000000000D+01
  
   8 0
 s    4  1.00
  0.1301000000D+02  0.1968498999D-01
  0.1962000000D+01  0.1379769298D+00
  0.4446000000D+00  0.4781477569D+00
  0.1220000000D+00  0.5012397451D+00
 s    4  1.00
  0.1301000000D+02  0.0000000000D+00
  0.1962000000D+01  0.0000000000D+00
  0.4446000000D+00  0.0000000000D+00
  0.1220000000D+00  0.1000000000D+01
 p    1  1.00
  0.7270000000D+00  0.1000000000D+01


[MO]
 Sym=      1.1
 Ene=     -11.2303
 Spin= Alpha
 Occup=    2.000000
1 0.95264407082350
2 0.007473199140682
3 -0.007563949470333
4 0.000000119836576
5 0.000000110229774
6 -0.000267633900235
7 0.000000047000561
8 -0.000000074258065
9 0.000034424963473
10 0.000340623143578
11 0.000341636633799
12 -0.000682259777376
13 0.000000129036695
14 -0.000000072275885
15 0.000001538060447
16 -0.000570732632648
17 0.001438730724501
18 0.000336791783088
19 0.000343010057419
20 -0.000057577566104
21 -0.000571319752263
22 0.001439120705994
23 0.000128856912543
24 -0.000463144482461
25 -0.000058620436629
26 -0.000569958587516
27 0.001438125130383
28 -0.000465381287933
29 0.000120121084533
30 -0.000057779916522
31 0.30840528764716
32 0.001890926253969
33 -0.001480955789376
34 0.000000013310268
35 0.000000005326371
36 0.000267309237313
37 0.000000032362816
38 -0.000000598115044
39 -0.000463148696140
40 0.000093976227786
41 0.000093806445822
42 -0.000187782673608
43 0.000000049563608
44 -0.000000058667544
45 0.000000272188832
46 -0.000341310424097
47 0.000480508881752
48 -0.000039720257232
49 0.000155212765396
50 0.000087834933687
51 -0.000342067234608
52 0.000480774357146
53 0.000154356921646
54 -0.000043177320752
55 0.000087711451655
56 -0.000342167399974
57 0.000480765906240
58 -0.000114610093209
59 -0.000112047988386
60 0.000087709461140
 Sym=      2.1
 Ene=     -11.2303
 Spin= Alpha
 Occup=    2.000000
1 0.30871845014898
2 0.003074412025592
3 -0.003645846431356
4 0.000000025268351
5 -0.000000111401878
6 0.000136641814971
7 0.000000172897773
8 -0.000000872708249
9 -0.000547182936565
10 0.000130742748534
11 0.000131283027961
12 -0.000262025776494
13 -0.000000117850598
14 -0.000000011752662
15 0.000000325460447
16 0.000009355492072
17 0.000447883414742
18 0.000104996405654
19 0.000107111368314
20 0.000066595722499
21 0.000007587996271
22 0.000448149285955
23 0.000040322041481
24 -0.000144728061019
25 0.000066237315352
26 0.000009268547735
27 0.000447773299117
28 -0.000145260202011
29 0.000037480438315
30 0.000066522252952
31 -0.95274565135833
32 -0.007857484934243
33 0.008265643206461
34 0.000000007643513
35 -0.000000055467887
36 -0.000135006575673
37 -0.000000014395252
38 -0.000000254120085
39 -0.000293968462725
40 -0.000353181622545
41 -0.000353294674354
42 0.000706476296899
43 0.000000103534793
44 0.000000135692308
45 -0.000000542747714
46 0.000457838311821
47 -0.001428364943289
48 0.000118237196216
49 -0.000462646113759
50 -0.000008013776343
51 0.000457254994417
52 -0.001428132813220
53 -0.000459714939197
54 0.000128939667817
55 -0.000007646708812
56 0.000457097495249
57 -0.001428110282035
58 0.000341438687141
59 0.000333689404672
60 -0.000007633529448
 Sym=      3.1
 Ene=      -0.9033
 Spin= Alpha
 Occup=    2.000000
1 -0.019831472076292
2 0.52952824310002
3 -0.10389619520844
4 0.000007073508730
5 0.000041827166422
6 -0.023029994622215
7 -0.000001577356220
8 -0.000010161154290
9 0.005045443449068
10 0.001030482439951
11 0.001030939805788
12 -0.002061422245738
13 0.000001511802603
14 -0.000000340832360
15 0.000004500129392
16 0.24552028380841
17 -0.10141407352288
18 -0.013952468408561
19 -0.014220008241639
20 0.000675258420246
21 0.24550812882280
22 -0.10141146155983
23 -0.005332912716549
24 0.019193652533917
25 0.000719319990932
26 0.24546982986976
27 -0.10138773717908
28 0.019287179552699
29 -0.004977227631238
30 0.000685263355994
31 -0.019842048134559
32 0.52975211312392
33 -0.10394618095936
34 0.000001422040595
35 -0.000011914961205
36 0.022957947026280
37 0.000000834506627
38 0.000004501438679
39 -0.005021156702392
40 0.001031704022592
41 0.001031130550385
42 -0.002062834572978
43 0.000000220411570
44 -0.000000445436037
45 0.000001215575265
46 0.24560988481157
47 -0.10145369915430
48 0.004936502544151
49 -0.019308797742972
50 -0.000700601310483
51 0.24560748414085
52 -0.10145242613543
53 -0.019190234719513
54 0.005380062727362
55 -0.000684768735629
56 0.24560782811781
57 -0.10145172549658
58 0.014253778774475
59 0.013929663716938
60 -0.000684515654185
 Sym=      4.1
 Ene=      -0.8882
 Spin= Alpha
 Occup=    2.000000
1 -0.019138047829230
2 0.53894192426381
3 -0.10755468925614
4 0.000008535187231
5 0.000022878220844
6 -0.032061107730703
7 -0.000001836794365
8 -0.000006221437820
9 0.003401958461742
10 0.001627202227690
11 0.001630044115412
12 -0.003257246343102
13 0.000000155626927
14 -0.000000420583821
15 0.000005703327743
16 0.25165154321400
17 -0.10459084363540
18 -0.014127499223042
19 -0.014398950036095
20 0.000656387815629
21 0.25168183775413
22 -0.10460180406199
23 -0.005400481210549
24 0.019435947781074
25 0.000702471787887
26 0.25160902177539
27 -0.10456648637555
28 0.019529692533408
29 -0.005040192287131
30 0.000666818880918
31 0.019134263452049
32 -0.53872660865808
33 0.10751084229156
34 0.000000567340729
35 0.000006733357451
36 -0.031935974471673
37 -0.000001241043800
38 -0.000001637365375
39 0.003385966641115
40 -0.001627585485409
41 -0.001627936593670
42 0.003255522079079
43 0.000000028869821
44 0.000000533336045
45 -0.000001964332667
46 -0.25155837321677
47 0.10455050321229
48 -0.004994563654919
49 0.019536120151604
50 0.000682707154699
51 -0.25154214950441
52 0.10454591514448
53 0.019415631915151
54 -0.005443651202242
55 0.000665801439190
56 -0.25154280066944
57 0.10454514752277
58 -0.014421173675889
59 -0.014093504853434
60 0.000665429854896
 Sym=      5.1
 Ene=      -0.5702
 Spin= Alpha
 Occup=    2.000000
1 0.000001086896984
2 0.000012482409297
3 -0.000008969468840
4 0.083084754178530
5 0.44342984104045
6 0.000553012158482
7 -0.015899579520122
8 -0.084650614878723
9 -0.000115450405280
10 0.007860440048928
11 -0.007851825427251
12 -0.000008614621677
13 0.014091985288777
14 -0.000630284568273
15 -0.003471764556488
16 0.37182335280778
17 -0.10449477240023
18 -0.012668808024155
19 -0.005717851215409
20 0.001335955869328
21 -0.40187312202250
22 0.11298067382794
23 0.007588726242708
24 -0.012416474132263
25 -0.001469884852931
26 0.030085526196079
27 -0.008501235439792
28 0.003268176327720
29 0.008480959239625
30 0.000119062767916
31 -0.000000473672169
32 -0.000047011268935
33 0.000010688457242
34 0.081731803608472
35 0.44214670814094
36 0.000187019274627
37 -0.015557336328474
38 -0.084409555730378
39 -0.000043577104347
40 -0.008609543747251
41 0.008605676816664
42 0.000003866930587
43 -0.013430157581549
44 0.000628351815753
45 0.003440403536343
46 0.40499293737371
47 -0.11381077023224
48 0.007160928369075
49 -0.012728801725728
50 -0.001466408813853
51 -0.040383895247035
52 0.011308522100188
53 0.003782802187278
54 0.008268863157257
55 0.000149105427922
56 -0.36468033205774
57 0.10253423342386
58 -0.012717496957265
59 -0.005160309301910
60 0.001311083795249
 Sym=      6.1
 Ene=      -0.5702
 Spin= Alpha
 Occup=    2.000000
1 -0.000001423638789
2 -0.000001698832857
3 -0.000007863431473
4 0.44128235972891
5 -0.082661004846259
6 -0.000128453277711
7 -0.084194847348266
8 0.015812769892737
9 0.000027952271479
10 -0.012148910495512
11 0.012145641911021
12 0.000003268584491
13 0.009039257793941
14 -0.003425024418489
15 0.000662369999786
16 0.24816558429597
17 -0.069782913058899
18 -0.000712506234371
19 -0.011408123602075
20 0.000882545602992
21 0.19630771548457
22 -0.055132384131346
23 0.005958730188516
24 0.008753263561953
25 0.000722081950911
26 -0.44452666140184
27 0.12492495426342
28 -0.014840434292991
29 0.004456743586566
30 -0.001600909139685
31 -0.000000048860982
32 0.000015322608485
33 -0.000001224078388
34 0.44427821853591
35 -0.082149393782750
36 -0.000087740286854
37 -0.084815669168749
38 0.015648770018915
39 0.000018972154022
40 0.011687714829209
41 -0.011686158612247
42 -0.000001556216962
43 -0.009988838354884
44 0.003446884900644
45 -0.000644316480350
46 -0.18816235851647
47 0.052925042864310
48 0.006347293828415
49 0.008384722141388
50 0.000680274783243
51 0.44652997218422
52 -0.12551768580427
53 -0.014755317276734
54 0.004988758798341
55 -0.001600510136700
56 -0.25835083784754
57 0.072584482688344
58 -0.001260377457950
59 -0.011589053489402
60 0.000923054280949
 Sym=      7.1
 Ene=      -0.5615
 Spin= Alpha
 Occup=    2.000000
1 0.000000331986302
2 0.000008983023494
3 -0.000010609559854
4 -0.020551790819172
5 -0.45551308237567
6 -0.000588015910263
7 0.003918001960566
8 0.087642281323831
9 0.000120178773507
10 -0.009604632351182
11 0.009596424599523
12 0.000008207751660
13 -0.012840804251355
14 0.000182929688264
15 0.004417500908700
16 -0.33801361103327
17 0.094795073201476
18 0.012575387096157
19 0.004188982546673
20 -0.000844621933662
21 0.43151609069582
22 -0.12095437508406
23 -0.006742638835476
24 0.013757343200249
25 0.001105391833859
26 -0.093496176378047
27 0.026165324413687
28 -0.005375019602529
29 -0.007760986603961
30 -0.000245136054553
31 0.000000240006804
32 0.000031561962186
33 -0.000011413102459
34 0.020114524120175
35 0.45693571052559
36 0.000236857453860
37 -0.003905646067499
38 -0.087895186732075
39 -0.000047631086362
40 -0.010325359167310
41 0.010323716679544
42 0.000001642487766
43 -0.012149618300332
44 0.000189185990000
45 0.004407190869152
46 0.43584407644347
47 -0.12219382987742
48 0.006321145078058
49 -0.014084805677786
50 -0.001099240807476
51 -0.10349600178841
52 0.029055018290992
53 0.005862691921635
54 0.007540796063009
55 0.000261592952602
56 -0.33228802409426
57 0.093123418357253
58 -0.012634793400726
59 -0.003666928145633
60 0.000831194117958
 Sym=      8.1
 Ene=      -0.5615
 Spin= Alpha
 Occup=    2.000000
1 -0.000001044227255
2 0.000009104878606
3 -0.000013302524312
4 0.45753663598405
5 -0.021242061420567
6 -0.000056622895854
7 -0.087983895854509
8 0.004043997982820
9 0.000012062649400
10 -0.011188099098057
11 0.011186296198551
12 0.000001802899507
13 0.011129591951519
14 -0.004403098798338
15 0.000220185418891
16 0.30400468859932
17 -0.085186344897260
18 -0.002593514512358
19 -0.012324056359061
20 0.000749638596941
21 0.14236440332870
22 -0.039940778938723
23 0.006995890082080
24 0.007097704416878
25 0.000368352350669
26 -0.44640178824712
27 0.12512968541586
28 -0.014620063251793
29 0.005697612726799
30 -0.001116186210160
31 0.000000020485390
32 -0.000001080426563
33 -0.000001231600022
34 -0.45491346957852
35 0.019408501180050
36 0.000065441651800
37 0.087507217885013
38 -0.003774210940664
39 -0.000013853919268
40 -0.010461161589489
41 0.010460503268767
42 0.000000658320722
43 0.011886479185254
44 -0.004377462624670
45 0.000192281672196
46 0.13092319708375
47 -0.036661653000103
48 -0.007252843859664
49 -0.006573121839086
50 -0.000329308146008
51 -0.44135347256565
52 0.12372019947012
53 0.014276338819144
54 -0.006149176555662
55 0.001096983610466
56 0.31043765589761
57 -0.087060713061131
58 0.003143526507520
59 0.012285033324979
60 -0.000769264473730
 Sym=      9.1
 Ene=      -0.1880
 Spin= Alpha
 Occup=    1.482377
1 0.001451821338728
2 0.032500647020871
3 0.004429610993846
4 0.000038388619990
5 -0.000817890187336
6 0.58223281786254
7 0.000009200316616
8 -0.000112628851858
9 0.073275197252038
10 -0.003118948790462
11 -0.003115359886811
12 0.006234308677273
13 -0.000002808450458
14 0.000000089164867
15 -0.000010292284234
16 -0.036397050816096
17 0.015250906404171
18 0.000870150467878
19 0.000868192622263
20 0.014403921524617
21 -0.036325899942975
22 0.015222503633716
23 0.000332968225471
24 -0.001212570117728
25 0.014395202010780
26 -0.036375033478294
27 0.015245059784140
28 -0.001200487691509
29 0.000292022700823
30 0.014399607680964
31 0.001451146524228
32 0.032244406448950
33 0.004341834402245
34 -0.000076820256426
35 0.000326976513759
36 -0.58223456725106
37 -0.000009828469881
38 0.000050754225899
39 -0.073297562409109
40 -0.003114549359542
41 -0.003110532150105
42 0.006225081509647
43 -0.000001490734118
44 0.000001092581484
45 -0.000003397571749
46 -0.036266435522372
47 0.015214000967508
48 -0.000308292519721
49 0.001206459488492
50 -0.014398999274499
51 -0.036304920997202
52 0.015245468459943
53 0.001190379822326
54 -0.000327717452533
55 -0.014403608385965
56 -0.036307248894361
57 0.015253832527838
58 -0.000886898534935
59 -0.000858349997597
60 -0.014403889824541
 Sym=     10.1
 Ene=       0.0023
 Spin= Alpha
 Occup=    0.517623
1 -0.001965866786888
2 0.090266716885207
3 0.049475193600680
4 0.000036785754417
5 -0.000847501372122
6 0.69912948787085
7 0.000002423388985
8 -0.000063482829028
9 0.059372812766360
10 -0.002166944844119
11 -0.002172492925653
12 0.004339437769772
13 0.000002877736487
14 0.000000274670793
15 -0.000009832485347
16 -0.007276630651513
17 -0.010268511764012
18 0.000123875642061
19 0.000107160888646
20 0.013153120906089