 Entering Gaussian System, Link 0=g09
 Input=geom.com
 Output=geom.log
 Initial command:
 /software/cinetica/g09d1/g09d01/d01/build-node-6-2-59348/src/main/l1.exe "/scratch/cc/139149/Gau-213083.inp" -scrdir="/scratch/cc/139149/"
 Entering Link 1 = /software/cinetica/g09d1/g09d01/d01/build-node-6-2-59348/src/main/l1.exe PID=    213084.
  
 Copyright (c) 1988,1990,1992,1993,1995,1998,2003,2009,2013,
            Gaussian, Inc.  All Rights Reserved.
  
 This is part of the Gaussian(R) 09 program.  It is based on
 the Gaussian(R) 03 system (copyright 2003, Gaussian, Inc.),
 the Gaussian(R) 98 system (copyright 1998, Gaussian, Inc.),
 the Gaussian(R) 94 system (copyright 1995, Gaussian, Inc.),
 the Gaussian 92(TM) system (copyright 1992, Gaussian, Inc.),
 the Gaussian 90(TM) system (copyright 1990, Gaussian, Inc.),
 the Gaussian 88(TM) system (copyright 1988, Gaussian, Inc.),
 the Gaussian 86(TM) system (copyright 1986, Carnegie Mellon
 University), and the Gaussian 82(TM) system (copyright 1983,
 Carnegie Mellon University). Gaussian is a federally registered
 trademark of Gaussian, Inc.
  
 This software contains proprietary and confidential information,
 including trade secrets, belonging to Gaussian, Inc.
  
 This software is provided under written license and may be
 used, copied, transmitted, or stored only in accord with that
 written license.
  
 The following legend is applicable only to US Government
 contracts under FAR:
  
                    RESTRICTED RIGHTS LEGEND
  
 Use, reproduction and disclosure by the US Government is
 subject to restrictions as set forth in subparagraphs (a)
 and (c) of the Commercial Computer Software - Restricted
 Rights clause in FAR 52.227-19.
  
 Gaussian, Inc.
 340 Quinnipiac St., Bldg. 40, Wallingford CT 06492
  
  
 ---------------------------------------------------------------
 Warning -- This program may not be used in any manner that
 competes with the business of Gaussian, Inc. or will provide
 assistance to any competitor of Gaussian, Inc.  The licensee
 of this program is prohibited from giving any competitor of
 Gaussian, Inc. access to this program.  By using this program,
 the user acknowledges that Gaussian, Inc. is engaged in the
 business of creating and licensing software in the field of
 computational chemistry and represents and warrants to the
 licensee that it is not a competitor of Gaussian, Inc. and that
 it will not use this program in any manner prohibited above.
 ---------------------------------------------------------------
  

 Cite this work as:
 Gaussian 09, Revision D.01,
 M. J. Frisch, G. W. Trucks, H. B. Schlegel, G. E. Scuseria, 
 M. A. Robb, J. R. Cheeseman, G. Scalmani, V. Barone, B. Mennucci, 
 G. A. Petersson, H. Nakatsuji, M. Caricato, X. Li, H. P. Hratchian, 
 A. F. Izmaylov, J. Bloino, G. Zheng, J. L. Sonnenberg, M. Hada, 
 M. Ehara, K. Toyota, R. Fukuda, J. Hasegawa, M. Ishida, T. Nakajima, 
 Y. Honda, O. Kitao, H. Nakai, T. Vreven, J. A. Montgomery, Jr., 
 J. E. Peralta, F. Ogliaro, M. Bearpark, J. J. Heyd, E. Brothers, 
 K. N. Kudin, V. N. Staroverov, T. Keith, R. Kobayashi, J. Normand, 
 K. Raghavachari, A. Rendell, J. C. Burant, S. S. Iyengar, J. Tomasi, 
 M. Cossi, N. Rega, J. M. Millam, M. Klene, J. E. Knox, J. B. Cross, 
 V. Bakken, C. Adamo, J. Jaramillo, R. Gomperts, R. E. Stratmann, 
 O. Yazyev, A. J. Austin, R. Cammi, C. Pomelli, J. W. Ochterski, 
 R. L. Martin, K. Morokuma, V. G. Zakrzewski, G. A. Voth, 
 P. Salvador, J. J. Dannenberg, S. Dapprich, A. D. Daniels, 
 O. Farkas, J. B. Foresman, J. V. Ortiz, J. Cioslowski, 
 and D. J. Fox, Gaussian, Inc., Wallingford CT, 2013.
 
 ******************************************
 Gaussian 09:  EM64L-G09RevD.01 24-Apr-2013
                27-May-2023 
 ******************************************
 %mem=400MW
 %chk=tmp
 %NProcShared= 32
 Will use up to   32 processors via shared memory.
 ----------------------------------------------------------------------
 # uwb97xd/aug-cc-pvtz opt=(noeig,intern,maxcyc=50) # int=ultrafine nos
 ym iop(7/33=1) guess=(mix,always)
 ----------------------------------------------------------------------
 1/6=50,10=7,11=1,14=-1,18=40,26=4,38=1/1,3;
 2/12=2,15=1,17=6,18=5,29=3,40=1/2;
 3/5=16,6=1,7=10,11=2,16=1,25=1,30=1,71=1,74=-58,75=-5,116=2/1,2,3;
 4/13=-1/1;
 5/5=2,38=5/2;
 6/7=2,8=2,9=2,10=2,28=1/1;
 7/29=1,30=1,33=1/1,2,3,16;
 1/6=50,10=7,11=1,14=-1,18=40,26=4/3(2);
 2/15=1,29=3/2;
 99//99;
 2/15=1,29=3/2;
 3/5=16,6=1,7=10,11=2,16=1,25=1,30=1,71=1,74=-58,75=-5,116=2/1,2,3;
 4/13=-1/1;
 5/5=2,38=5/2;
 7/30=1,33=1/1,2,3,16;
 1/6=50,11=1,14=-1,18=40,26=4/3(-5);
 2/15=1,29=3/2;
 6/7=2,8=2,9=2,10=2,19=2,28=1/1;
 99/9=1/99;
 ------
 geom 0
 ------
 Symbolic Z-matrix:
 Charge =  0 Multiplicity = 1
 C1
 H2                   C1   R1
 H3                   C1   R2       H2   A2
 H4                   C1   R3       H2   A3       H3   D3       0
 C21                  1    rts      2    aabs1    3    babs1    0
 H22                  C21  R21      1    aabs2    2    babs2    0
 H23                  C21  R22      H22  A22      1    babs3    0
 H24                  C21  R23      H22  A23      H23  D23      0
       Variables:
  BABS3               100.6444                   
  BABS2                59.7504                   
  AABS2                96.211                    
  BABS1               100.7619                   
  AABS1                96.2237                   
       Constants:
  D3                  179.8076                   
  R21                   1.0782                   
  R22                   1.0782                   
  R23                   1.0782                   
  A22                 119.9721                   
  A23                 120.0207                   
  D23                 179.8076                   
  A3                  120.0207                   
  A2                  119.9721                   
  R3                    1.0782                   
  R2                    1.0782                   
  R1                    1.0782                   
  RTS                   2.8                      
 

 GradGradGradGradGradGradGradGradGradGradGradGradGradGradGradGradGradGrad
 Berny optimization.
 Initialization pass.
                       ----------------------------
                       !    Initial Parameters    !
                       ! (Angstroms and Degrees)  !
 ----------------------                            ----------------------
 !      Name          Value   Derivative information (Atomic Units)     !
 ------------------------------------------------------------------------
 !      BABS3      100.6444   estimate D2E/DX2                          !
 !      BABS2       59.7504   estimate D2E/DX2                          !
 !      AABS2       96.211    estimate D2E/DX2                          !
 !      BABS1      100.7619   estimate D2E/DX2                          !
 !      AABS1       96.2237   estimate D2E/DX2                          !
 !       D3        179.8076   Frozen                                    !
 !       R21         1.0782   Frozen                                    !
 !       R22         1.0782   Frozen                                    !
 !       R23         1.0782   Frozen                                    !
 !       A22       119.9721   Frozen                                    !
 !       A23       120.0207   Frozen                                    !
 !       D23       179.8076   Frozen                                    !
 !       A3        120.0207   Frozen                                    !
 !       A2        119.9721   Frozen                                    !
 !       R3          1.0782   Frozen                                    !
 !       R2          1.0782   Frozen                                    !
 !       R1          1.0782   Frozen                                    !
 !       RTS         2.8      Frozen                                    !
 ------------------------------------------------------------------------
 Trust Radius=3.00D-01 FncErr=1.00D-07 GrdErr=1.00D-06
 Number of steps in this run=     50 maximum allowed number of steps=    100.
 GradGradGradGradGradGradGradGradGradGradGradGradGradGradGradGradGradGrad

 ---------------------------------------------------------------------------------------------------
                            Z-MATRIX (ANGSTROMS AND DEGREES)
   CD    Cent   Atom    N1       Length/X        N2       Alpha/Y        N3        Beta/Z          J
 ---------------------------------------------------------------------------------------------------
      1      1  C 
      2      2  H        1   1.078200(     1)
      3      3  H        1   1.078200(     2)      2  119.972(     8)
      4      4  H        1   1.078200(     3)      2  120.021(     9)      3  179.808(    14)      0
      5      5  C        1   2.800000(     4)      2   96.224(    10)      3  100.762(    15)      0
      6      6  H        5   1.078200(     5)      1   96.211(    11)      2   59.750(    16)      0
      7      7  H        5   1.078200(     6)      6  119.972(    12)      1  100.644(    17)      0
      8      8  H        5   1.078200(     7)      6  120.021(    13)      7  179.808(    18)      0
 ---------------------------------------------------------------------------------------------------
                         Z-Matrix orientation:                         
 ---------------------------------------------------------------------
 Center     Atomic      Atomic             Coordinates (Angstroms)
 Number     Number       Type             X           Y           Z
 ---------------------------------------------------------------------
      1          6           0        0.000000    0.000000    0.000000
      2          1           0        0.000000    0.000000    1.078200
      3          1           0        0.934011    0.000000   -0.538645
      4          1           0       -0.933548   -0.003135   -0.539437
      5          6           0       -0.519757   -2.734540   -0.303550
      6          1           0       -1.461980   -2.733077    0.220596
      7          1           0        0.373393   -3.075583    0.194935
      8          1           0       -0.471137   -2.398049   -1.326743
 ---------------------------------------------------------------------
                    Distance matrix (angstroms):
                    1          2          3          4          5
     1  C    0.000000
     2  H    1.078200   0.000000
     3  H    1.078200   1.867235   0.000000
     4  H    1.078200   1.867692   1.867562   0.000000
     5  C    2.800000   3.107586   3.105869   2.772624   0.000000
     6  H    3.107372   3.215988   3.713076   2.882616   1.078200
     7  H    3.104293   3.221613   3.211175   3.418675   1.078200
     8  H    2.780801   3.428754   2.888975   2.563062   1.078200
                    6          7          8
     6  H    0.000000
     7  H    1.867235   0.000000
     8  H    1.867692   1.867562   0.000000
 Symmetry turned off by external request.
 Stoichiometry    C2H6
 Framework group  C1[X(C2H6)]
 Deg. of freedom    18
 Full point group                 C1      NOp   1
 Rotational constants (GHZ):     73.6047855      8.0924657      8.0824657
 Standard basis: Aug-CC-pVTZ (5D, 7F)
   230 basis functions,   306 primitive gaussians,   260 cartesian basis functions
     9 alpha electrons        9 beta electrons
       nuclear repulsion energy        34.0665168823 Hartrees.
 NAtoms=    8 NActive=    8 NUniq=    8 SFac= 1.00D+00 NAtFMM=   60 NAOKFM=F Big=F
 Integral buffers will be    131072 words long.
 Raffenetti 2 integral format.
 Two-electron integral symmetry is turned off.
 Nuclear repulsion after empirical dispersion term =       34.0643547700 Hartrees.
 One-electron integrals computed using PRISM.
 NBasis=   230 RedAO= T EigKep=  5.79D-05  NBF=   230
 NBsUse=   230 1.00D-06 EigRej= -1.00D+00 NBFU=   230
 ExpMin= 2.53D-02 ExpMax= 8.24D+03 ExpMxC= 2.81D+02 IAcc=3 IRadAn=         5 AccDes= 0.00D+00
 Harris functional with IExCor= 4639 and IRadAn=       5 diagonalized for initial guess.
 HarFok:  IExCor= 4639 AccDes= 0.00D+00 IRadAn=         5 IDoV= 1 UseB2=F ITyADJ=14
 ICtDFT=  3500011 ScaDFX=  1.000000  1.000000  1.000000  1.000000
 FoFCou: FMM=F IPFlag=           0 FMFlag=      100000 FMFlg1=           0
         NFxFlg=           0 DoJE=T BraDBF=F KetDBF=T FulRan=T
         wScrn=  0.000000 ICntrl=     500 IOpCl=  0 I1Cent=   200000004 NGrid=           0
         NMat0=    1 NMatS0=      1 NMatT0=    0 NMatD0=    1 NMtDS0=    0 NMtDT0=    0
 Symmetry not used in FoFCou.
 Mixing orbitals, IMix= 1 IMixAn=  0 NRI=1 NE=    9 Coef=  7.07106781D-01  7.07106781D-01
 Mixing orbitals, IMix= 1 IMixAn=  0 NRI=1 NE=    9 Coef= -7.07106781D-01  7.07106781D-01
 Initial guess <Sx>= 0.0000 <Sy>= 0.0000 <Sz>= 0.0000 <S**2>= 1.0000 S= 0.6180
 Requested convergence on RMS density matrix=1.00D-08 within 128 cycles.
 Requested convergence on MAX density matrix=1.00D-06.
 Requested convergence on             energy=1.00D-06.
 No special actions if energy rises.
 SCF Done:  E(UwB97XD) =  -79.6902012961     A.U. after   12 cycles
            NFock= 12  Conv=0.50D-08     -V/T= 2.0077
 <Sx>= 0.0000 <Sy>= 0.0000 <Sz>= 0.0000 <S**2>= 0.7427 S= 0.4964
 <L.S>=  0.00000000000    
 Annihilation of the first spin contaminant:
 S**2 before annihilation     0.7427,   after     0.0295

 **********************************************************************

            Population analysis using the SCF density.

 **********************************************************************

 Alpha  occ. eigenvalues --  -10.29641 -10.28681  -0.78465  -0.73974  -0.51058
 Alpha  occ. eigenvalues --   -0.50851  -0.49276  -0.48993  -0.30810
 Alpha virt. eigenvalues --    0.01314   0.03300   0.04628   0.04703   0.05688
 Alpha virt. eigenvalues --    0.06919   0.07129   0.10904   0.11915   0.12240
 Alpha virt. eigenvalues --    0.13098   0.14130   0.14273   0.15358   0.16374
 Alpha virt. eigenvalues --    0.19627   0.19883   0.22189   0.22370   0.23980
 Alpha virt. eigenvalues --    0.24311   0.28790   0.30119   0.30996   0.31260
 Alpha virt. eigenvalues --    0.31990   0.33289   0.35049   0.35440   0.35948
 Alpha virt. eigenvalues --    0.36349   0.36698   0.36947   0.38274   0.39508
 Alpha virt. eigenvalues --    0.39783   0.39935   0.41075   0.41455   0.41726
 Alpha virt. eigenvalues --    0.41913   0.42046   0.44377   0.45014   0.46274
 Alpha virt. eigenvalues --    0.47700   0.48834   0.49544   0.50677   0.56992
 Alpha virt. eigenvalues --    0.66423   0.70160   0.70964   0.71234   0.72097
 Alpha virt. eigenvalues --    0.72450   0.74933   0.76102   0.77991   0.78405
 Alpha virt. eigenvalues --    0.79414   0.80697   0.81345   0.82531   0.83027
 Alpha virt. eigenvalues --    0.84705   0.85037   0.86230   0.88230   0.90835
 Alpha virt. eigenvalues --    0.91681   0.92037   0.92610   0.93594   0.95393
 Alpha virt. eigenvalues --    0.98034   1.01565   1.02812   1.04040   1.04378
 Alpha virt. eigenvalues --    1.05119   1.05661   1.06949   1.09053   1.10758
 Alpha virt. eigenvalues --    1.10907   1.11888   1.12622   1.13963   1.15960
 Alpha virt. eigenvalues --    1.18166   1.19483   1.24093   1.24239   1.25909
 Alpha virt. eigenvalues --    1.27380   1.36435   1.38084   1.40835   1.44159
 Alpha virt. eigenvalues --    1.45248   1.47512   1.47743   1.49636   1.50974
 Alpha virt. eigenvalues --    1.51513   1.51980   1.52703   1.53643   1.53755
 Alpha virt. eigenvalues --    1.55034   1.58311   1.61456   1.63051   1.66150
 Alpha virt. eigenvalues --    1.67083   1.68430   1.77277   1.79200   1.80984
 Alpha virt. eigenvalues --    1.81483   1.81718   1.83063   1.91924   1.98147
 Alpha virt. eigenvalues --    1.99898   2.01787   2.03968   2.06663   2.09195
 Alpha virt. eigenvalues --    2.09991   2.10673   2.11779   2.12513   2.20080
 Alpha virt. eigenvalues --    2.82160   2.83608   2.85400   2.92789   2.93847
 Alpha virt. eigenvalues --    3.00249   3.02291   3.03336   3.06869   3.08302
 Alpha virt. eigenvalues --    3.20406   3.25510   3.34990   3.35982   3.36255
 Alpha virt. eigenvalues --    3.39119   3.40422   3.40976   3.42376   3.43143
 Alpha virt. eigenvalues --    3.44067   3.44324   3.47567   3.50675   3.53823
 Alpha virt. eigenvalues --    3.54552   3.59657   3.60308   3.62277   3.70734
 Alpha virt. eigenvalues --    3.73461   3.75572   3.76541   3.76831   3.79508
 Alpha virt. eigenvalues --    3.80497   3.82300   3.97492   4.03203   4.05369
 Alpha virt. eigenvalues --    4.08645   4.11146   4.16304   4.18425   4.18699
 Alpha virt. eigenvalues --    4.21111   4.22953   4.23057   4.49285   4.56620
 Alpha virt. eigenvalues --    4.59602   4.60882   4.61187   4.61343   4.63565
 Alpha virt. eigenvalues --    4.65111   4.66161   4.70584   4.78012   4.82118
 Alpha virt. eigenvalues --    4.85648   4.89681   5.04892   5.05502   5.06570
 Alpha virt. eigenvalues --    5.07316   5.12485   5.12974   5.15352   5.16147
 Alpha virt. eigenvalues --    5.18765   5.20886   5.21063   5.25099   5.29533
 Alpha virt. eigenvalues --    5.39989   6.07213   6.12681   6.24771   6.26157
 Alpha virt. eigenvalues --    6.26469   6.29166   6.40614   6.44151  16.06672
 Alpha virt. eigenvalues --   16.35623
  Beta  occ. eigenvalues --  -10.29645 -10.28678  -0.78470  -0.73970  -0.51060
  Beta  occ. eigenvalues --   -0.50855  -0.49272  -0.48993  -0.30811
  Beta virt. eigenvalues --    0.01314   0.03300   0.04628   0.04704   0.05689
  Beta virt. eigenvalues --    0.06919   0.07130   0.10906   0.11917   0.12241
  Beta virt. eigenvalues --    0.13096   0.14133   0.14273   0.15360   0.16377
  Beta virt. eigenvalues --    0.19627   0.19883   0.22190   0.22367   0.23985
  Beta virt. eigenvalues --    0.24313   0.28776   0.30133   0.30998   0.31258
  Beta virt. eigenvalues --    0.31990   0.33286   0.35051   0.35435   0.35950
  Beta virt. eigenvalues --    0.36349   0.36716   0.36928   0.38274   0.39506
  Beta virt. eigenvalues --    0.39776   0.39947   0.41069   0.41450   0.41724
  Beta virt. eigenvalues --    0.41919   0.42050   0.44377   0.45017   0.46274
  Beta virt. eigenvalues --    0.47701   0.48837   0.49544   0.50675   0.56990
  Beta virt. eigenvalues --    0.66426   0.70167   0.70960   0.71231   0.72097
  Beta virt. eigenvalues --    0.72447   0.74911   0.76124   0.78005   0.78404
  Beta virt. eigenvalues --    0.79410   0.80683   0.81356   0.82516   0.83026
  Beta virt. eigenvalues --    0.84700   0.85051   0.86237   0.88220   0.90829
  Beta virt. eigenvalues --    0.91706   0.92013   0.92610   0.93605   0.95393
  Beta virt. eigenvalues --    0.98031   1.01566   1.02814   1.04015   1.04402
  Beta virt. eigenvalues --    1.05124   1.05656   1.06952   1.09044   1.10757
  Beta virt. eigenvalues --    1.10900   1.11903   1.12615   1.13963   1.15959
  Beta virt. eigenvalues --    1.18165   1.19489   1.24072   1.24264   1.25913
  Beta virt. eigenvalues --    1.27376   1.36431   1.38082   1.40833   1.44162
  Beta virt. eigenvalues --    1.45253   1.47561   1.47700   1.49620   1.50974
  Beta virt. eigenvalues --    1.51512   1.51999   1.52688   1.53652   1.53752
  Beta virt. eigenvalues --    1.55026   1.58309   1.61437   1.63054   1.66156
  Beta virt. eigenvalues --    1.67081   1.68439   1.77321   1.79195   1.81000
  Beta virt. eigenvalues --    1.81448   1.81708   1.83074   1.91930   1.98133
  Beta virt. eigenvalues --    1.99913   2.01773   2.03969   2.06666   2.09194
  Beta virt. eigenvalues --    2.09980   2.10658   2.11807   2.12506   2.20082
  Beta virt. eigenvalues --    2.82096   2.83741   2.85381   2.92785   2.93840
  Beta virt. eigenvalues --    3.00255   3.02212   3.03405   3.06842   3.08289
  Beta virt. eigenvalues --    3.20423   3.25501   3.35020   3.35970   3.36257
  Beta virt. eigenvalues --    3.39111   3.40388   3.40999   3.42396   3.43134
  Beta virt. eigenvalues --    3.44068   3.44318   3.47571   3.50694   3.53837
  Beta virt. eigenvalues --    3.54517   3.59633   3.60348   3.62265   3.70734
  Beta virt. eigenvalues --    3.73462   3.75565   3.76548   3.76822   3.79515
  Beta virt. eigenvalues --    3.80511   3.82271   3.97488   4.03191   4.05400
  Beta virt. eigenvalues --    4.08585   4.11190   4.16302   4.18443   4.18719
  Beta virt. eigenvalues --    4.21092   4.22961   4.23038   4.49295   4.56612
  Beta virt. eigenvalues --    4.59616   4.60883   4.61195   4.61314   4.63555
  Beta virt. eigenvalues --    4.65121   4.66164   4.70584   4.78011   4.82087
  Beta virt. eigenvalues --    4.85676   4.89682   5.04886   5.05494   5.06571
  Beta virt. eigenvalues --    5.07326   5.12567   5.13014   5.15217   5.16121
  Beta virt. eigenvalues --    5.18787   5.20858   5.21083   5.25117   5.29547
  Beta virt. eigenvalues --    5.39984   6.07225   6.12673   6.24786   6.26165
  Beta virt. eigenvalues --    6.26442   6.29168   6.40618   6.44146  16.06666
  Beta virt. eigenvalues --   16.35629
          Condensed to atoms (all electrons):
               1          2          3          4          5          6
     1  C    6.027872   0.341751   0.337820   0.320972   0.059949  -0.000421
     2  H    0.341751   0.282341   0.011003   0.011134  -0.003034  -0.000634
     3  H    0.337820   0.011003   0.278437   0.010010  -0.000401  -0.000697
     4  H    0.320972   0.011134   0.010010   0.286752   0.005500  -0.000476
     5  C    0.059949  -0.003034  -0.000401   0.005500   6.027852   0.338050
     6  H   -0.000421  -0.000634  -0.000697  -0.000476   0.338050   0.278285
     7  H   -0.003161  -0.000648  -0.000642  -0.000666   0.341563   0.011023
     8  H    0.005179  -0.000663  -0.000493   0.000463   0.321161   0.009980
               7          8
     1  C   -0.003161   0.005179
     2  H   -0.000648  -0.000663
     3  H   -0.000642  -0.000493
     4  H   -0.000666   0.000463
     5  C    0.341563   0.321161
     6  H    0.011023   0.009980
     7  H    0.282452   0.011159
     8  H    0.011159   0.286443
          Atomic-Atomic Spin Densities.
               1          2          3          4          5          6
     1  C    0.912263   0.004470   0.003302  -0.000034   0.000408  -0.003883
     2  H    0.004470  -0.028752   0.001805   0.002875   0.006192   0.000333
     3  H    0.003302   0.001805  -0.026924   0.003364   0.003957   0.000001
     4  H   -0.000034   0.002875   0.003364  -0.023226   0.000516  -0.000413
     5  C    0.000408   0.006192   0.003957   0.000516  -0.912000  -0.003340
     6  H   -0.003883   0.000333   0.000001  -0.000413  -0.003340   0.026892
     7  H   -0.006238  -0.000008  -0.000339  -0.000707  -0.004717  -0.001786
     8  H   -0.000611   0.000675   0.000408  -0.000013  -0.000305  -0.003309
               7          8
     1  C   -0.006238  -0.000611
     2  H   -0.000008   0.000675
     3  H   -0.000339   0.000408
     4  H   -0.000707  -0.000013
     5  C   -0.004717  -0.000305
     6  H   -0.001786  -0.003309
     7  H    0.028806  -0.002810
     8  H   -0.002810   0.023354
 Mulliken charges and spin densities:
               1          2
     1  C   -1.089962   0.909677
     2  H    0.358749  -0.012409
     3  H    0.364963  -0.014425
     4  H    0.366311  -0.017638
     5  C   -1.090641  -0.909289
     6  H    0.364889   0.014495
     7  H    0.358919   0.012201
     8  H    0.366772   0.017389
 Sum of Mulliken charges =  -0.00000   0.00000
 Mulliken charges and spin densities with hydrogens summed into heavy atoms:
               1          2
     1  C    0.000061   0.865205
     5  C   -0.000061  -0.865205
 Electronic spatial extent (au):  <R**2>=            311.9001
 Charge=             -0.0000 electrons
 Dipole moment (field-independent basis, Debye):
    X=             -0.0022    Y=             -0.0033    Z=             -0.0040  Tot=              0.0056
 Quadrupole moment (field-independent basis, Debye-Ang):
   XX=            -14.4861   YY=            -17.8829   ZZ=            -14.6454
   XY=             -0.2557   XZ=             -0.1140   YZ=             -0.5527
 Traceless Quadrupole moment (field-independent basis, Debye-Ang):
   XX=              1.1854   YY=             -2.2115   ZZ=              1.0261
   XY=             -0.2557   XZ=             -0.1140   YZ=             -0.5527
 Octapole moment (field-independent basis, Debye-Ang**2):
  XXX=             11.2011  YYY=             72.2273  ZZZ=              6.8774  XYY=              6.3507
  XXY=             19.9415  XXZ=              2.2393  XZZ=              3.9421  YZZ=             20.9496
  YYZ=              5.8208  XYZ=              0.5415
 Hexadecapole moment (field-independent basis, Debye-Ang**3):
 XXXX=            -41.3582 YYYY=           -419.8881 ZZZZ=            -33.0044 XXXY=            -30.4418
 XXXZ=             -4.8057 YYYX=            -44.8728 YYYZ=            -33.9339 ZZZX=             -3.1522
 ZZZY=            -16.6201 XXYY=            -66.9621 XXZZ=            -13.2210 YYZZ=            -69.4103
 XXYZ=             -8.6126 YYXZ=             -3.4065 ZZXY=            -10.9858
 N-N= 3.406435477002D+01 E-N=-2.519152029791D+02  KE= 7.908415101078D+01
                          Isotropic Fermi Contact Couplings
        Atom                 a.u.       MegaHertz       Gauss      10(-4) cm-1
     1  C(13)              0.00228       1.28198       0.45744       0.42762
     2  H(1)              -0.01277     -28.55099     -10.18770      -9.52358
     3  H(1)              -0.01253     -28.00331      -9.99228      -9.34090
     4  H(1)              -0.01363     -30.46285     -10.86990     -10.16131
     5  C(13)             -0.00253      -1.42371      -0.50801      -0.47490
     6  H(1)               0.01253      28.00492       9.99285       9.34144
     7  H(1)               0.01279      28.58985      10.20157       9.53655
     8  H(1)               0.01359      30.37282      10.83778      10.13128
 --------------------------------------------------------
       Center         ----  Spin Dipole Couplings  ----
                      3XX-RR        3YY-RR        3ZZ-RR
 --------------------------------------------------------
     1   Atom       -0.494421      0.987124     -0.492702
     2   Atom       -0.062950     -0.004052      0.067002
     3   Atom        0.033192     -0.003620     -0.029572
     4   Atom        0.037719     -0.010004     -0.027714
     5   Atom        0.446026     -0.795500      0.349473
     6   Atom       -0.037636      0.012407      0.025229
     7   Atom       -0.030680      0.002672      0.028007
     8   Atom        0.058484      0.002598     -0.061082
 --------------------------------------------------------
                        XY            XZ            YZ
 --------------------------------------------------------
     1   Atom        0.000467     -0.000927      0.002488
     2   Atom       -0.001985     -0.001597     -0.005109
     3   Atom       -0.005086     -0.056880      0.001079
     4   Atom        0.001382      0.056296      0.001326
     5   Atom       -0.244455     -0.082446     -0.432802
     6   Atom       -0.005793      0.051748     -0.021012
     7   Atom        0.021635     -0.054130     -0.001863
     8   Atom       -0.010014      0.003410      0.025063
 --------------------------------------------------------


 ---------------------------------------------------------------------------------
              Anisotropic Spin Dipole Couplings in Principal Axis System
 ---------------------------------------------------------------------------------

       Atom             a.u.   MegaHertz   Gauss  10(-4) cm-1        Axes

              Baa    -0.4948   -66.401   -23.694   -22.149  0.9162 -0.0010  0.4008
     1 C(13)  Bbb    -0.4923   -66.062   -23.573   -22.036 -0.4008 -0.0014  0.9162
              Bcc     0.9871   132.463    47.266    44.185  0.0003  1.0000  0.0017
 
              Baa    -0.0630   -33.636   -12.002   -11.220  0.9993  0.0348  0.0136
     2 H(1)   Bbb    -0.0043    -2.317    -0.827    -0.773 -0.0357  0.9969  0.0706
              Bcc     0.0674    35.953    12.829    11.992 -0.0111 -0.0710  0.9974
 
              Baa    -0.0632   -33.720   -12.032   -11.248  0.5091  0.0279  0.8603
     3 H(1)   Bbb    -0.0039    -2.090    -0.746    -0.697  0.0457  0.9972 -0.0594
              Bcc     0.0671    35.810    12.778    11.945  0.8595 -0.0695 -0.5064
 
              Baa    -0.0601   -32.074   -11.445   -10.699 -0.4986 -0.0092  0.8668
     4 H(1)   Bbb    -0.0100    -5.359    -1.912    -1.787 -0.0247  0.9997 -0.0036
              Bcc     0.0702    37.433    13.357    12.486  0.8665  0.0232  0.4987
 
              Baa    -0.9871  -132.463   -47.266   -44.185  0.1772  0.9331  0.3131
     5 C(13)  Bbb     0.4924    66.074    23.577    22.040  0.9685 -0.2219  0.1133
              Bcc     0.4947    66.389    23.689    22.145 -0.1752 -0.2831  0.9430
 
              Baa    -0.0671   -35.809   -12.777   -11.944  0.8635 -0.0691 -0.4996
     6 H(1)   Bbb     0.0039     2.093     0.747     0.698  0.2489  0.9200  0.3028
              Bcc     0.0632    33.715    12.030    11.246  0.4387 -0.3858  0.8116
 
              Baa    -0.0674   -35.975   -12.837   -12.000  0.8447 -0.2481  0.4743
     7 H(1)   Bbb     0.0044     2.357     0.841     0.786  0.1030  0.9449  0.3109
              Bcc     0.0630    33.619    11.996    11.214 -0.5252 -0.2138  0.8237
 
              Baa    -0.0701   -37.399   -13.345   -12.475 -0.0508 -0.3318  0.9420
     8 H(1)   Bbb     0.0099     5.262     1.878     1.755  0.1674  0.9270  0.3355
              Bcc     0.0602    32.137    11.467    10.720  0.9846 -0.1747 -0.0084
 

 ---------------------------------------------------------------------------------

 DipInt: DoE/N= T T RetVal/Mat= T F Init=T NMatP=  1 IDeriv=0 Min/MaxMlt=  1  1
 Entering OneElI...
 Multipole integrals L=1 to 1 MinM= 0 MaxM= 0.
 Requested accuracy = 0.1000D-12
 PrsmSu:  NPrtUS=   1 ThrOK=F IAlg=1 NPAlg=1 LenDen=           0.
 Prism:   IPart=     0 DynPar=F LinDyn=F Incr=          34.
 PRISM was handed   419149577 working-precision words and  3402 shell-pairs
 IPart=  0 NShTot=        3402 NBatch=          45 AvBLen=        75.6
 PrSmSu:  NxtVal=             35.
 Entering OneElI...
 Calculate overlap and kinetic energy integrals
    NBasis = 260  MinDer = 1  MaxDer = 1
 Requested accuracy = 0.1000D-12
 PrsmSu:  NPrtUS=  32 ThrOK=T IAlg=1 NPAlg=1 LenDen=           0.
 Prism:   IPart=     0 DynPar=F LinDyn=F Incr=           1.
 PRISM was handed    13041718 working-precision words and  3403 shell-pairs
 PRISM was handed    13041718 working-precision words and  3403 shell-pairs
 PRISM was handed    13041718 working-precision words and  3403 shell-pairs
 PRISM was handed    13041718 working-precision words and  3403 shell-pairs
 PRISM was handed    13041718 working-precision words and  3403 shell-pairs
 PRISM was handed    13041718 working-precision words and  3403 shell-pairs
 PRISM was handed    13041718 working-precision words and  3403 shell-pairs
 PRISM was handed    13041718 working-precision words and  3403 shell-pairs
 PRISM was handed    13041718 working-precision words and  3403 shell-pairs
 PRISM was handed    13041718 working-precision words and  3403 shell-pairs
 PRISM was handed    13041718 working-precision words and  3403 shell-pairs
 PRISM was handed    13041718 working-precision words and  3403 shell-pairs
 PRISM was handed    13041718 working-precision words and  3403 shell-pairs
 PRISM was handed    13041718 working-precision words and  3403 shell-pairs
 PRISM was handed    13041718 working-precision words and  3403 shell-pairs
 PRISM was handed    13041718 working-precision words and  3403 shell-pairs
 IPart=  0 NShTot=         134 NBatch=          42 AvBLen=         3.2
 PRISM was handed    13041718 working-precision words and  3403 shell-pairs
 PRISM was handed    13041718 working-precision words and  3403 shell-pairs
 PRISM was handed    13041718 working-precision words and  3403 shell-pairs
 PRISM was handed    13041718 working-precision words and  3403 shell-pairs
 PRISM was handed    13041718 working-precision words and  3403 shell-pairs
 PRISM was handed    13041718 working-precision words and  3403 shell-pairs
 PRISM was handed    13041718 working-precision words and  3403 shell-pairs
 PRISM was handed    13041718 working-precision words and  3403 shell-pairs
 PRISM was handed    13041718 working-precision words and  3403 shell-pairs
 PRISM was handed    13041718 working-precision words and  3403 shell-pairs
 PRISM was handed    13041718 working-precision words and  3403 shell-pairs
 PRISM was handed    13041718 working-precision words and  3403 shell-pairs
 PRISM was handed    13041718 working-precision words and  3403 shell-pairs
 PRISM was handed    13041718 working-precision words and  3403 shell-pairs
 PRISM was handed    13041718 working-precision words and  3403 shell-pairs
 PRISM was handed    13041718 working-precision words and  3403 shell-pairs
 IPart= 29 NShTot=          96 NBatch=          20 AvBLen=         4.8
 IPart= 24 NShTot=          96 NBatch=          20 AvBLen=         4.8
 IPart=  8 NShTot=         111 NBatch=          23 AvBLen=         4.8
 IPart= 30 NShTot=          95 NBatch=          20 AvBLen=         4.8
 IPart= 10 NShTot=         110 NBatch=          22 AvBLen=         5.0
 IPart=  5 NShTot=         121 NBatch=          32 AvBLen=         3.8
 IPart= 21 NShTot=          97 NBatch=          21 AvBLen=         4.6
 IPart= 26 NShTot=          96 NBatch=          20 AvBLen=         4.8
 IPart= 13 NShTot=         106 NBatch=          22 AvBLen=         4.8
 IPart= 31 NShTot=          95 NBatch=          20 AvBLen=         4.8
 IPart= 12 NShTot=         107 NBatch=          22 AvBLen=         4.9
 IPart= 23 NShTot=          97 NBatch=          21 AvBLen=         4.6
 IPart= 14 NShTot=         105 NBatch=          21 AvBLen=         5.0
 IPart= 27 NShTot=          96 NBatch=          20 AvBLen=         4.8
 IPart= 28 NShTot=          96 NBatch=          20 AvBLen=         4.8
 IPart= 25 NShTot=          96 NBatch=          20 AvBLen=         4.8
 IPart= 19 NShTot=          98 NBatch=          21 AvBLen=         4.7
 IPart=  6 NShTot=         118 NBatch=          29 AvBLen=         4.1
 IPart= 16 NShTot=          99 NBatch=          21 AvBLen=         4.7
 IPart= 11 NShTot=         109 NBatch=          22 AvBLen=         5.0
 IPart= 18 NShTot=          98 NBatch=          21 AvBLen=         4.7
 IPart= 22 NShTot=          97 NBatch=          21 AvBLen=         4.6
 IPart=  4 NShTot=         121 NBatch=          32 AvBLen=         3.8
 IPart=  2 NShTot=         124 NBatch=          32 AvBLen=         3.9
 IPart=  1 NShTot=         132 NBatch=          40 AvBLen=         3.3
 IPart= 17 NShTot=          98 NBatch=          21 AvBLen=         4.7
 IPart=  9 NShTot=         111 NBatch=          23 AvBLen=         4.8
 IPart= 20 NShTot=          97 NBatch=          21 AvBLen=         4.6
 IPart= 15 NShTot=         105 NBatch=          21 AvBLen=         5.0
 IPart=  3 NShTot=         124 NBatch=          32 AvBLen=         3.9
 IPart=  7 NShTot=         118 NBatch=          29 AvBLen=         4.1
 PrSmSu:  NxtVal=             33.
 Entering OneElI...
 Calculate potential energy integrals
    NBasis = 260  MinDer = 1  MaxDer = 1
 Requested accuracy = 0.1000D-12
 PrsmSu:  NPrtUS=  32 ThrOK=T IAlg=1 NPAlg=1 LenDen=           0.
 Prism:   IPart=     0 DynPar=F LinDyn=F Incr=           8.
 PRISM was handed    13047390 working-precision words and  3380 shell-pairs
 PRISM was handed    13047390 working-precision words and  3380 shell-pairs
 PRISM was handed    13047390 working-precision words and  3380 shell-pairs
 PRISM was handed    13047390 working-precision words and  3380 shell-pairs
 PRISM was handed    13047390 working-precision words and  3380 shell-pairs
 PRISM was handed    13047390 working-precision words and  3380 shell-pairs
 PRISM was handed    13047390 working-precision words and  3380 shell-pairs
 PRISM was handed    13047390 working-precision words and  3380 shell-pairs
 PRISM was handed    13047390 working-precision words and  3380 shell-pairs
 PRISM was handed    13047390 working-precision words and  3380 shell-pairs
 PRISM was handed    13047390 working-precision words and  3380 shell-pairs
 PRISM was handed    13047390 working-precision words and  3380 shell-pairs
 PRISM was handed    13047390 working-precision words and  3380 shell-pairs
 PRISM was handed    13047390 working-precision words and  3380 shell-pairs
 PRISM was handed    13047390 working-precision words and  3380 shell-pairs
 PRISM was handed    13047390 working-precision words and  3380 shell-pairs
 PRISM was handed    13047390 working-precision words and  3380 shell-pairs
 PRISM was handed    13047390 working-precision words and  3380 shell-pairs
 PRISM was handed    13047390 working-precision words and  3380 shell-pairs
 PRISM was handed    13047390 working-precision words and  3380 shell-pairs
 PRISM was handed    13047390 working-precision words and  3380 shell-pairs
 PRISM was handed    13047390 working-precision words and  3380 shell-pairs
 PRISM was handed    13047390 working-precision words and  3380 shell-pairs
 PRISM was handed    13047390 working-precision words and  3380 shell-pairs
 PRISM was handed    13047390 working-precision words and  3380 shell-pairs
 PRISM was handed    13047390 working-precision words and  3380 shell-pairs
 PRISM was handed    13047390 working-precision words and  3380 shell-pairs
 PRISM was handed    13047390 working-precision words and  3380 shell-pairs
 PRISM was handed    13047390 working-precision words and  3380 shell-pairs
 PRISM was handed    13047390 working-precision words and  3380 shell-pairs
 PRISM was handed    13047390 working-precision words and  3380 shell-pairs
 PRISM was handed    13047390 working-precision words and  3380 shell-pairs
 IPart= 20 NShTot=         784 NBatch=          98 AvBLen=         8.0
 IPart= 24 NShTot=         776 NBatch=          97 AvBLen=         8.0
 IPart= 26 NShTot=         768 NBatch=          96 AvBLen=         8.0
 IPart= 22 NShTot=         784 NBatch=          98 AvBLen=         8.0
 IPart=  9 NShTot=         880 NBatch=         110 AvBLen=         8.0
 IPart= 30 NShTot=         744 NBatch=          93 AvBLen=         8.0
 IPart= 15 NShTot=         824 NBatch=         103 AvBLen=         8.0
 IPart= 11 NShTot=         840 NBatch=         105 AvBLen=         8.0
 IPart=  7 NShTot=         920 NBatch=         115 AvBLen=         8.0
 IPart= 28 NShTot=         744 NBatch=          93 AvBLen=         8.0
 IPart= 17 NShTot=         792 NBatch=          99 AvBLen=         8.0
 IPart= 13 NShTot=         832 NBatch=         104 AvBLen=         8.0
 IPart=  2 NShTot=         992 NBatch=         124 AvBLen=         8.0
 IPart= 12 NShTot=         840 NBatch=         105 AvBLen=         8.0
 IPart=  1 NShTot=        1064 NBatch=         133 AvBLen=         8.0
 IPart= 18 NShTot=         792 NBatch=          99 AvBLen=         8.0
 IPart= 27 NShTot=         768 NBatch=          96 AvBLen=         8.0
 IPart=  3 NShTot=         992 NBatch=         124 AvBLen=         8.0
 IPart=  5 NShTot=         968 NBatch=         121 AvBLen=         8.0
 IPart= 14 NShTot=         824 NBatch=         103 AvBLen=         8.0
 IPart=  8 NShTot=         880 NBatch=         110 AvBLen=         8.0
 IPart= 10 NShTot=         848 NBatch=         106 AvBLen=         8.0
 IPart=  0 NShTot=        1080 NBatch=         135 AvBLen=         8.0
 IPart= 21 NShTot=         784 NBatch=          98 AvBLen=         8.0
 IPart= 16 NShTot=         800 NBatch=         100 AvBLen=         8.0
 IPart= 25 NShTot=         768 NBatch=          96 AvBLen=         8.0
 IPart= 31 NShTot=         744 NBatch=          93 AvBLen=         8.0
 IPart= 23 NShTot=         784 NBatch=          98 AvBLen=         8.0
 IPart=  6 NShTot=         920 NBatch=         115 AvBLen=         8.0
 IPart= 19 NShTot=         792 NBatch=          99 AvBLen=         8.0
 IPart= 29 NShTot=         744 NBatch=          93 AvBLen=         8.0
 IPart=  4 NShTot=         968 NBatch=         121 AvBLen=         8.0
 PrSmSu:  NxtVal=            257.
 l701 out
 I=    0 X=  -8.620640082213D-04 Y=  -1.308870332832D-03 Z=  -1.567518639496D-03
 I=    1 X=   4.014272699711D-01 Y=   1.881664148984D+00 Z=   2.233566759077D-01
 I=    2 X=   4.773127244553D-02 Y=   2.434462623706D-01 Z=   2.962976550153D+00
 I=    3 X=   2.585994905539D+00 Y=   2.815262379144D-01 Z=  -1.438801195133D+00
 I=    4 X=  -2.484637194787D+00 Y=   3.829037764992D-01 Z=  -1.448573248493D+00
 I=    5 X=  -3.671016185193D-01 Y=  -1.881720518403D+00 Z=  -1.647351061274D-01
 I=    6 X=  -2.617151049659D+00 Y=  -2.745528807824D-01 Z=   1.385971589577D+00
 I=    7 X=   2.385371256673D+00 Y=  -1.171587864739D+00 Z=   1.331795340797D+00
 I=    8 X=   4.836515833678D-02 Y=   5.383208381562D-01 Z=  -2.851990606681D+00
 ICntrl=      2127.
 Calling FoFJK, ICntrl=      2127 FMM=F ISym2X=0 I1Cent= 0 IOpClX= 1 NMat=1 NMatS=1 NMatT=0.
 FoFJK:  IHMeth= 1 ICntrl=    2127 DoSepK=T KAlg= 0 I1Cent=   0 FoldK=F
 IRaf=         1 NMat=   1 IRICut=       1 DoRegI=T DoRafI=F ISym2E= 0.
 FoFCou: FMM=F IPFlag=           0 FMFlag=      100000 FMFlg1=         800
         NFxFlg=           0 DoJE=F BraDBF=F KetDBF=F FulRan=T
         wScrn=  0.000000 ICntrl=    2527 IOpCl=  0 I1Cent=           0 NGrid=           0
         NMat0=    1 NMatS0=      1 NMatT0=    0 NMatD0=    1 NMtDS0=    0 NMtDT0=    0
 Symmetry not used in FoFCou.
 FoFCou:  KetSym=F NOpSet=  1 NOpAb=1 NOp=  1.
 FoFCou:  CnvScl= 1.00D+00 Thresh= 1.00D-10 IAcrcy=      10.
 PrismS was handed   419079049 working-precision words and  3402 shell-pairs
 FoFCou: LinMIO=F DoNuc=F BraDBF=F KetDBF=F HaveP=T PDBF=F HaveZ=T HaveW=F
         NIJTC =      10 NIJTAt=       0 NIJTCD=       0 NIJTT =      10
         IJTBeg=       1 IJTEnd=      10 KLTBeg=       1 KLTEnd=      10
         IPTBeg=       1 IPTEnd=      10 IPTBCv=       1 IPTECv=      10
         IZTBeg=       1 IZTEnd=      10 IZTBCv=       1 IZTECv=      10
         IWTBeg=      11 IWTEnd=      10 IWTBCv=      11 IWTECv=      10
         INTBeg=       1 INTEnd=       0 IFTBCv=       1 IFTECv=      10
 NCel replicated for PrismC:     1
 CoulSu:  IncDef=  1024 NBBP=        5788503 NTPThr=   100 NPartT=   32 Incr=        1024 LDynOK=F.
 CoulSu:  NPrtUS=  32 ThrOK=T IAlg=1 NPAlg=1 LenDen=           0 LWGrdD=           0 DoCopy=F.
 Enter PrismC: JobTyp=21 DoJE=F Cont=F.
 PrismC:  IPart=     0 DynPar=T LinDyn=F Incr=        1024 UseFst=F UseS4=T IGathr=2.
 PrismC was handed    13043842 working-precision words and  3402 shell-pairs
 Enter PrismC: JobTyp=21 DoJE=F Cont=F.
 Enter PrismC: JobTyp=21 DoJE=F Cont=F.
 Enter PrismC: JobTyp=21 DoJE=F Cont=F.
 Enter PrismC: JobTyp=21 DoJE=F Cont=F.
 Enter PrismC: JobTyp=21 DoJE=F Cont=F.
 Enter PrismC: JobTyp=21 DoJE=F Cont=F.
 Enter PrismC: JobTyp=21 DoJE=F Cont=F.
 Enter PrismC: JobTyp=21 DoJE=F Cont=F.
 Enter PrismC: JobTyp=21 DoJE=F Cont=F.
 Enter PrismC: JobTyp=21 DoJE=F Cont=F.
 Enter PrismC: JobTyp=21 DoJE=F Cont=F.
 Enter PrismC: JobTyp=21 DoJE=F Cont=F.
 Enter PrismC: JobTyp=21 DoJE=F Cont=F.
 Enter PrismC: JobTyp=21 DoJE=F Cont=F.
 Enter PrismC: JobTyp=21 DoJE=F Cont=F.
 Enter PrismC: JobTyp=21 DoJE=F Cont=F.
 Enter PrismC: JobTyp=21 DoJE=F Cont=F.
 Enter PrismC: JobTyp=21 DoJE=F Cont=F.
 Enter PrismC: JobTyp=21 DoJE=F Cont=F.
 PrismC was handed    13043842 working-precision words and  3402 shell-pairs
 Enter PrismC: JobTyp=21 DoJE=F Cont=F.
 PrismC was handed    13043842 working-precision words and  3402 shell-pairs
 Enter PrismC: JobTyp=21 DoJE=F Cont=F.
 PrismC was handed    13043842 working-precision words and  3402 shell-pairs
 Enter PrismC: JobTyp=21 DoJE=F Cont=F.
 PrismC was handed    13043842 working-precision words and  3402 shell-pairs
 Enter PrismC: JobTyp=21 DoJE=F Cont=F.
 PrismC was handed    13043842 working-precision words and  3402 shell-pairs
 Enter PrismC: JobTyp=21 DoJE=F Cont=F.
 PrismC was handed    13043842 working-precision words and  3402 shell-pairs
 Enter PrismC: JobTyp=21 DoJE=F Cont=F.
 PrismC was handed    13043842 working-precision words and  3402 shell-pairs
 Enter PrismC: JobTyp=21 DoJE=F Cont=F.
 PrismC was handed    13043842 working-precision words and  3402 shell-pairs
 Enter PrismC: JobTyp=21 DoJE=F Cont=F.
 PrismC was handed    13043842 working-precision words and  3402 shell-pairs
 Enter PrismC: JobTyp=21 DoJE=F Cont=F.
 PrismC was handed    13043842 working-precision words and  3402 shell-pairs
 Enter PrismC: JobTyp=21 DoJE=F Cont=F.
 PrismC was handed    13043842 working-precision words and  3402 shell-pairs
 Enter PrismC: JobTyp=21 DoJE=F Cont=F.
 PrismC was handed    13043842 working-precision words and  3402 shell-pairs
 Enter PrismC: JobTyp=21 DoJE=F Cont=F.
 PrismC was handed    13043842 working-precision words and  3402 shell-pairs
 PrismC was handed    13043842 working-precision words and  3402 shell-pairs
 PrismC was handed    13043842 working-precision words and  3402 shell-pairs
 PrismC was handed    13043842 working-precision words and  3402 shell-pairs
 PrismC was handed    13043842 working-precision words and  3402 shell-pairs
 PrismC was handed    13043842 working-precision words and  3402 shell-pairs
 PrismC was handed    13043842 working-precision words and  3402 shell-pairs
 PrismC was handed    13043842 working-precision words and  3402 shell-pairs
 PrismC was handed    13043842 working-precision words and  3402 shell-pairs
 PrismC was handed    13043842 working-precision words and  3402 shell-pairs
 PrismC was handed    13043842 working-precision words and  3402 shell-pairs
 PrismC was handed    13043842 working-precision words and  3402 shell-pairs
 PrismC was handed    13043842 working-precision words and  3402 shell-pairs
 PrismC was handed    13043842 working-precision words and  3402 shell-pairs
 PrismC was handed    13043842 working-precision words and  3402 shell-pairs
 PrismC was handed    13043842 working-precision words and  3402 shell-pairs
 PrismC was handed    13043842 working-precision words and  3402 shell-pairs
 PrismC was handed    13043842 working-precision words and  3402 shell-pairs
 PrismC was handed    13043842 working-precision words and  3402 shell-pairs
 IPart= 21 NShTot=      167610 NShNF=      167610 NShFF=           0 NBatch=        1516 AvBLen=       110.6
 IPart=  3 NShTot=      156041 NShNF=      156041 NShFF=           0 NBatch=        1529 AvBLen=       102.1
 IPart= 29 NShTot=      161185 NShNF=      161185 NShFF=           0 NBatch=        1524 AvBLen=       105.8
 IPart= 20 NShTot=      169973 NShNF=      169973 NShFF=           0 NBatch=        1490 AvBLen=       114.1
 IPart=  0 NShTot=      146047 NShNF=      146047 NShFF=           0 NBatch=        1137 AvBLen=       128.4
 IPart= 17 NShTot=      163768 NShNF=      163768 NShFF=           0 NBatch=        1543 AvBLen=       106.1
 IPart=  2 NShTot=      158423 NShNF=      158423 NShFF=           0 NBatch=        1486 AvBLen=       106.6
 IPart= 14 NShTot=      153489 NShNF=      153489 NShFF=           0 NBatch=        1451 AvBLen=       105.8
 IPart= 24 NShTot=      179884 NShNF=      179884 NShFF=           0 NBatch=        1418 AvBLen=       126.9
 IPart=  8 NShTot=      173950 NShNF=      173950 NShFF=           0 NBatch=        1530 AvBLen=       113.7
 IPart=  1 NShTot=      163812 NShNF=      163812 NShFF=           0 NBatch=        1526 AvBLen=       107.3
 IPart= 15 NShTot=      182607 NShNF=      182607 NShFF=           0 NBatch=        1572 AvBLen=       116.2
 IPart= 12 NShTot=      158311 NShNF=      158311 NShFF=           0 NBatch=        1474 AvBLen=       107.4
 IPart= 11 NShTot=      156452 NShNF=      156452 NShFF=           0 NBatch=        1300 AvBLen=       120.3
 IPart=  4 NShTot=      169794 NShNF=      169794 NShFF=           0 NBatch=        1528 AvBLen=       111.1
 IPart= 30 NShTot=      167702 NShNF=      167702 NShFF=           0 NBatch=        1550 AvBLen=       108.2
 IPart= 25 NShTot=      155038 NShNF=      155038 NShFF=           0 NBatch=        1518 AvBLen=       102.1
 IPart= 27 NShTot=      172033 NShNF=      172033 NShFF=           0 NBatch=        1257 AvBLen=       136.9
 IPart= 31 NShTot=      163067 NShNF=      163067 NShFF=           0 NBatch=        1491 AvBLen=       109.4
 IPart= 26 NShTot=      184661 NShNF=      184661 NShFF=           0 NBatch=        1438 AvBLen=       128.4
 IPart= 22 NShTot=      170789 NShNF=      170789 NShFF=           0 NBatch=        1557 AvBLen=       109.7
 IPart=  5 NShTot=      166505 NShNF=      166505 NShFF=           0 NBatch=        1501 AvBLen=       110.9
 IPart=  6 NShTot=      166199 NShNF=      166199 NShFF=           0 NBatch=        1527 AvBLen=       108.8
 IPart= 10 NShTot=      154720 NShNF=      154720 NShFF=           0 NBatch=        1477 AvBLen=       104.8
 IPart= 16 NShTot=      174158 NShNF=      174158 NShFF=           0 NBatch=        1574 AvBLen=       110.6
 IPart= 13 NShTot=      184823 NShNF=      184823 NShFF=           0 NBatch=        1574 AvBLen=       117.4
 IPart= 18 NShTot=      175123 NShNF=      175123 NShFF=           0 NBatch=        1554 AvBLen=       112.7
 IPart=  9 NShTot=      162895 NShNF=      162895 NShFF=           0 NBatch=        1426 AvBLen=       114.2
 IPart= 19 NShTot=      159225 NShNF=      159225 NShFF=           0 NBatch=        1554 AvBLen=       102.5
 IPart= 23 NShTot=      167261 NShNF=      167261 NShFF=           0 NBatch=        1513 AvBLen=       110.5
 IPart=  7 NShTot=      165439 NShNF=      165439 NShFF=           0 NBatch=        1289 AvBLen=       128.3
 IPart= 28 NShTot=      185827 NShNF=      185827 NShFF=           0 NBatch=        1309 AvBLen=       142.0
 CoulSu:  NxtVal=        6346753.
 FoFCou: FMM=F IPFlag=           0 FMFlag=      100000 FMFlg1=         800
         NFxFlg=           0 DoJE=F BraDBF=F KetDBF=F FulRan=T
         wScrn=  0.000000 ICntrl=    2127 IOpCl=  1 I1Cent=           0 NGrid=           0
         NMat0=    1 NMatS0=      0 NMatT0=    1 NMatD0=    1 NMtDS0=    0 NMtDT0=    0
         CW=    0.222036    0.777964
         WU=    0.000000   12.500000
 Symmetry not used in FoFCou.
 FoFCou:  KetSym=F NOpSet=  1 NOpAb=1 NOp=  1.
 FoFCou:  CnvScl= 1.00D+00 Thresh= 1.00D-10 IAcrcy=      10.
 PrismS was handed   419075702 working-precision words and  3402 shell-pairs
 FoFCou: LinMIO=F DoNuc=F BraDBF=F KetDBF=F HaveP=T PDBF=F HaveZ=T HaveW=F
         NIJTC =      10 NIJTAt=       0 NIJTCD=       0 NIJTT =      10
         IJTBeg=       1 IJTEnd=      10 KLTBeg=       1 KLTEnd=      10
         IPTBeg=       1 IPTEnd=      10 IPTBCv=       1 IPTECv=      10
         IZTBeg=       1 IZTEnd=      10 IZTBCv=       1 IZTECv=      10
         IWTBeg=      11 IWTEnd=      10 IWTBCv=      11 IWTECv=      10
         INTBeg=       1 INTEnd=       0 IFTBCv=       1 IFTECv=      10
 NCel replicated for PrismC:     1
 CoulSu:  IncDef=  1024 NBBP=        5788503 NTPThr=   100 NPartT=   32 Incr=        1024 LDynOK=F.
 CoulSu:  NPrtUS=  32 ThrOK=T IAlg=1 NPAlg=1 LenDen=           0 LWGrdD=           0 DoCopy=F.
 Enter PrismC: JobTyp=21 DoJE=F Cont=F.
 Linear combination for Coulomb/exchange, wScrn=  0.000000
 CW=    0.222036    0.777964
 WU=    0.000000   12.500000
 PrismC:  IPart=     0 DynPar=T LinDyn=F Incr=        1024 UseFst=F UseS4=T IGathr=2.
 PrismC was handed    13043737 working-precision words and  3402 shell-pairs
 Enter PrismC: JobTyp=21 DoJE=F Cont=F.
 Enter PrismC: JobTyp=21 DoJE=F Cont=F.
 Enter PrismC: JobTyp=21 DoJE=F Cont=F.
 Linear combination for Coulomb/exchange, wScrn=  0.000000
 CW=    0.222036    0.777964
 WU=    0.000000   12.500000
 Enter PrismC: JobTyp=21 DoJE=F Cont=F.
 Linear combination for Coulomb/exchange, wScrn=  0.000000
 CW=    0.222036    0.777964
 WU=    0.000000   12.500000
 Enter PrismC: JobTyp=21 DoJE=F Cont=F.
 Linear combination for Coulomb/exchange, wScrn=  0.000000
 CW=    0.222036    0.777964
 WU=    0.000000   12.500000
 Enter PrismC: JobTyp=21 DoJE=F Cont=F.
 Linear combination for Coulomb/exchange, wScrn=  0.000000
 CW=    0.222036    0.777964
 WU=    0.000000   12.500000
 Enter PrismC: JobTyp=21 DoJE=F Cont=F.
 Linear combination for Coulomb/exchange, wScrn=  0.000000
 CW=    0.222036    0.777964
 WU=    0.000000   12.500000
 Enter PrismC: JobTyp=21 DoJE=F Cont=F.
 Linear combination for Coulomb/exchange, wScrn=  0.000000
 CW=    0.222036    0.777964
 WU=    0.000000   12.500000
 Enter PrismC: JobTyp=21 DoJE=F Cont=F.
 Linear combination for Coulomb/exchange, wScrn=  0.000000
 CW=    0.222036    0.777964
 WU=    0.000000   12.500000
 Enter PrismC: JobTyp=21 DoJE=F Cont=F.
 Linear combination for Coulomb/exchange, wScrn=  0.000000
 CW=    0.222036    0.777964
 WU=    0.000000   12.500000
 Enter PrismC: JobTyp=21 DoJE=F Cont=F.
 Linear combination for Coulomb/exchange, wScrn=  0.000000
 CW=    0.222036    0.777964
 WU=    0.000000   12.500000
 Enter PrismC: JobTyp=21 DoJE=F Cont=F.
 Linear combination for Coulomb/exchange, wScrn=  0.000000
 CW=    0.222036    0.777964
 WU=    0.000000   12.500000
 Linear combination for Coulomb/exchange, wScrn=  0.000000
 CW=    0.222036    0.777964
 WU=    0.000000   12.500000
 Enter PrismC: JobTyp=21 DoJE=F Cont=F.
 Linear combination for Coulomb/exchange, wScrn=  0.000000
 CW=    0.222036    0.777964
 WU=    0.000000   12.500000
 Enter PrismC: JobTyp=21 DoJE=F Cont=F.
 Linear combination for Coulomb/exchange, wScrn=  0.000000
 CW=    0.222036    0.777964
 WU=    0.000000   12.500000
 Enter PrismC: JobTyp=21 DoJE=F Cont=F.
 Linear combination for Coulomb/exchange, wScrn=  0.000000
 CW=    0.222036    0.777964
 WU=    0.000000   12.500000
 Enter PrismC: JobTyp=21 DoJE=F Cont=F.
 Linear combination for Coulomb/exchange, wScrn=  0.000000
 CW=    0.222036    0.777964
 WU=    0.000000   12.500000
 Enter PrismC: JobTyp=21 DoJE=F Cont=F.
 Linear combination for Coulomb/exchange, wScrn=  0.000000
 CW=    0.222036    0.777964
 WU=    0.000000   12.500000
 Enter PrismC: JobTyp=21 DoJE=F Cont=F.
 Linear combination for Coulomb/exchange, wScrn=  0.000000
 CW=    0.222036    0.777964
 WU=    0.000000   12.500000
 Enter PrismC: JobTyp=21 DoJE=F Cont=F.
 Linear combination for Coulomb/exchange, wScrn=  0.000000
 CW=    0.222036    0.777964
 WU=    0.000000   12.500000
 Linear combination for Coulomb/exchange, wScrn=  0.000000
 CW=    0.222036    0.777964
 WU=    0.000000   12.500000
 Enter PrismC: JobTyp=21 DoJE=F Cont=F.
 Linear combination for Coulomb/exchange, wScrn=  0.000000
 CW=    0.222036    0.777964
 WU=    0.000000   12.500000
 Enter PrismC: JobTyp=21 DoJE=F Cont=F.
 Linear combination for Coulomb/exchange, wScrn=  0.000000
 CW=    0.222036    0.777964
 WU=    0.000000   12.500000
 Enter PrismC: JobTyp=21 DoJE=F Cont=F.
 Linear combination for Coulomb/exchange, wScrn=  0.000000
 CW=    0.222036    0.777964
 WU=    0.000000   12.500000
 Enter PrismC: JobTyp=21 DoJE=F Cont=F.
 Linear combination for Coulomb/exchange, wScrn=  0.000000
 CW=    0.222036    0.777964
 WU=    0.000000   12.500000
 PrismC was handed    13043737 working-precision words and  3402 shell-pairs
 PrismC was handed    13043737 working-precision words and  3402 shell-pairs
 Enter PrismC: JobTyp=21 DoJE=F Cont=F.
 Linear combination for Coulomb/exchange, wScrn=  0.000000
 CW=    0.222036    0.777964
 WU=    0.000000   12.500000
 Enter PrismC: JobTyp=21 DoJE=F Cont=F.
 Linear combination for Coulomb/exchange, wScrn=  0.000000
 CW=    0.222036    0.777964
 WU=    0.000000   12.500000
 Enter PrismC: JobTyp=21 DoJE=F Cont=F.
 Linear combination for Coulomb/exchange, wScrn=  0.000000
 CW=    0.222036    0.777964
 WU=    0.000000   12.500000
 PrismC was handed    13043737 working-precision words and  3402 shell-pairs
 PrismC was handed    13043737 working-precision words and  3402 shell-pairs
 Enter PrismC: JobTyp=21 DoJE=F Cont=F.
 Linear combination for Coulomb/exchange, wScrn=  0.000000
 CW=    0.222036    0.777964
 WU=    0.000000   12.500000
 Enter PrismC: JobTyp=21 DoJE=F Cont=F.
 Linear combination for Coulomb/exchange, wScrn=  0.000000
 CW=    0.222036    0.777964
 WU=    0.000000   12.500000
 Enter PrismC: JobTyp=21 DoJE=F Cont=F.
 Linear combination for Coulomb/exchange, wScrn=  0.000000
 CW=    0.222036    0.777964
 WU=    0.000000   12.500000
 Enter PrismC: JobTyp=21 DoJE=F Cont=F.
 Linear combination for Coulomb/exchange, wScrn=  0.000000
 CW=    0.222036    0.777964
 WU=    0.000000   12.500000
 PrismC was handed    13043737 working-precision words and  3402 shell-pairs
 PrismC was handed    13043737 working-precision words and  3402 shell-pairs
 PrismC was handed    13043737 working-precision words and  3402 shell-pairs
 PrismC was handed    13043737 working-precision words and  3402 shell-pairs
 PrismC was handed    13043737 working-precision words and  3402 shell-pairs
 PrismC was handed    13043737 working-precision words and  3402 shell-pairs
 PrismC was handed    13043737 working-precision words and  3402 shell-pairs
 PrismC was handed    13043737 working-precision words and  3402 shell-pairs
 PrismC was handed    13043737 working-precision words and  3402 shell-pairs
 PrismC was handed    13043737 working-precision words and  3402 shell-pairs
 PrismC was handed    13043737 working-precision words and  3402 shell-pairs
 PrismC was handed    13043737 working-precision words and  3402 shell-pairs
 PrismC was handed    13043737 working-precision words and  3402 shell-pairs
 PrismC was handed    13043737 working-precision words and  3402 shell-pairs
 PrismC was handed    13043737 working-precision words and  3402 shell-pairs
 PrismC was handed    13043737 working-precision words and  3402 shell-pairs
 PrismC was handed    13043737 working-precision words and  3402 shell-pairs
 PrismC was handed    13043737 working-precision words and  3402 shell-pairs
 PrismC was handed    13043737 working-precision words and  3402 shell-pairs
 PrismC was handed    13043737 working-precision words and  3402 shell-pairs
 PrismC was handed    13043737 working-precision words and  3402 shell-pairs
 PrismC was handed    13043737 working-precision words and  3402 shell-pairs
 PrismC was handed    13043737 working-precision words and  3402 shell-pairs
 PrismC was handed    13043737 working-precision words and  3402 shell-pairs
 Enter PrismC: JobTyp=21 DoJE=F Cont=F.
 Linear combination for Coulomb/exchange, wScrn=  0.000000
 CW=    0.222036    0.777964
 WU=    0.000000   12.500000
 PrismC was handed    13043737 working-precision words and  3402 shell-pairs
 PrismC was handed    13043737 working-precision words and  3402 shell-pairs
 PrismC was handed    13043737 working-precision words and  3402 shell-pairs
 IPart=  1 NShTot=      176172 NShNF=      176172 NShFF=           0 NBatch=        1915 AvBLen=        92.0
 IPart= 25 NShTot=      179508 NShNF=      179508 NShFF=           0 NBatch=        1875 AvBLen=        95.7
 IPart= 16 NShTot=      174779 NShNF=      174779 NShFF=           0 NBatch=        1807 AvBLen=        96.7
 IPart= 24 NShTot=      163899 NShNF=      163899 NShFF=           0 NBatch=        1864 AvBLen=        87.9
 IPart= 30 NShTot=      170478 NShNF=      170478 NShFF=           0 NBatch=        1892 AvBLen=        90.1
 IPart= 12 NShTot=      174031 NShNF=      174031 NShFF=           0 NBatch=        1855 AvBLen=        93.8
 IPart= 27 NShTot=      172189 NShNF=      172189 NShFF=           0 NBatch=        1891 AvBLen=        91.1
 IPart= 18 NShTot=      152260 NShNF=      152260 NShFF=           0 NBatch=        1737 AvBLen=        87.7
 IPart= 14 NShTot=      173427 NShNF=      173427 NShFF=           0 NBatch=        1862 AvBLen=        93.1
 IPart= 22 NShTot=      157327 NShNF=      157327 NShFF=           0 NBatch=        1874 AvBLen=        84.0
 IPart= 29 NShTot=      181182 NShNF=      181182 NShFF=           0 NBatch=        1820 AvBLen=        99.6
 IPart= 11 NShTot=      155573 NShNF=      155573 NShFF=           0 NBatch=        1829 AvBLen=        85.1
 IPart=  4 NShTot=      170762 NShNF=      170762 NShFF=           0 NBatch=        1847 AvBLen=        92.5
 IPart= 13 NShTot=      167296 NShNF=      167296 NShFF=           0 NBatch=        1826 AvBLen=        91.6
 IPart= 21 NShTot=      162724 NShNF=      162724 NShFF=           0 NBatch=        1807 AvBLen=        90.1
 IPart= 28 NShTot=      176070 NShNF=      176070 NShFF=           0 NBatch=        1731 AvBLen=       101.7
 IPart=  5 NShTot=      176250 NShNF=      176250 NShFF=           0 NBatch=        1900 AvBLen=        92.8
 IPart=  9 NShTot=      169692 NShNF=      169692 NShFF=           0 NBatch=        1826 AvBLen=        92.9
 IPart=  3 NShTot=      168264 NShNF=      168264 NShFF=           0 NBatch=        1871 AvBLen=        89.9
 IPart= 17 NShTot=      174584 NShNF=      174584 NShFF=           0 NBatch=        1781 AvBLen=        98.0
 IPart= 19 NShTot=      166464 NShNF=      166464 NShFF=           0 NBatch=        1676 AvBLen=        99.3
 IPart=  0 NShTot=      163468 NShNF=      163468 NShFF=           0 NBatch=        1532 AvBLen=       106.7
 IPart= 23 NShTot=      175550 NShNF=      175550 NShFF=           0 NBatch=        1623 AvBLen=       108.2
 IPart=  8 NShTot=      144601 NShNF=      144601 NShFF=           0 NBatch=        1831 AvBLen=        79.0
 IPart= 10 NShTot=      166371 NShNF=      166371 NShFF=           0 NBatch=        1845 AvBLen=        90.2
 IPart= 31 NShTot=      162356 NShNF=      162356 NShFF=           0 NBatch=        1739 AvBLen=        93.4
 IPart= 20 NShTot=      162373 NShNF=      162373 NShFF=           0 NBatch=        1809 AvBLen=        89.8
 IPart= 26 NShTot=      157499 NShNF=      157499 NShFF=           0 NBatch=        1883 AvBLen=        83.6
 IPart=  6 NShTot=      167366 NShNF=      167366 NShFF=           0 NBatch=        1812 AvBLen=        92.4
 IPart=  7 NShTot=      175483 NShNF=      175483 NShFF=           0 NBatch=        1864 AvBLen=        94.1
 IPart= 15 NShTot=      168599 NShNF=      168599 NShFF=           0 NBatch=        1788 AvBLen=        94.3
 IPart=  2 NShTot=      153029 NShNF=      153029 NShFF=           0 NBatch=        1876 AvBLen=        81.6
 CoulSu:  NxtVal=        6346753.
 ReadGW:  IGet=0 IStart=           1 Next=           1 LGW=           0.
 Remaining memory in FofDFT      399.87 Mw
 CkSvGd:  ISavGI=        -1 IRadAn=       5 IRASav=       5 ISavGd=        -1.
 CalDSu:  NPrtUS=  32 ThrOK=T IAlg=1 NPAlg=2 DoDPD=T LenP=       33930 LenD1P=             0.
 IPart=  0 IRanGd=          0 ScrnBf=T ScrnGd=T RCrit=4.00D+00 DoMicB=T.
 IPart= 11         5206 of         5570 points in       6 batches and       13 microbatches, Max-NSigAt=       8 Max-NSgAt2=       8
 IPart= 24         5460 of         6024 points in       7 batches and       24 microbatches, Max-NSigAt=       8 Max-NSgAt2=       8
 IPart= 31         4993 of         5694 points in       6 batches and       29 microbatches, Max-NSigAt=       8 Max-NSgAt2=       8
 IPart= 15         5297 of         5750 points in       6 batches and       13 microbatches, Max-NSigAt=       8 Max-NSgAt2=       8
 IPart=  7         5394 of         6064 points in       7 batches and       24 microbatches, Max-NSigAt=       8 Max-NSgAt2=       8
 IPart= 17         5102 of         5722 points in       7 batches and       28 microbatches, Max-NSigAt=       8 Max-NSgAt2=       8
 IPart= 18         5820 of         6828 points in       9 batches and       38 microbatches, Max-NSigAt=       8 Max-NSgAt2=       8
 IPart=  2         5321 of         5750 points in       6 batches and       40 microbatches, Max-NSigAt=       8 Max-NSgAt2=       8
 IPart=  3         5382 of         6048 points in       7 batches and       46 microbatches, Max-NSigAt=       8 Max-NSgAt2=       8
 IPart=  6         5563 of         6698 points in       9 batches and       43 microbatches, Max-NSigAt=       8 Max-NSgAt2=       8
 IPart=  5         4700 of         5338 points in       6 batches and       29 microbatches, Max-NSigAt=       8 Max-NSgAt2=       8
 IPart=  9         4905 of         5090 points in       5 batches and       27 microbatches, Max-NSigAt=       8 Max-NSgAt2=       8
 IPart= 30         4524 of         4704 points in       4 batches and       15 microbatches, Max-NSigAt=       8 Max-NSgAt2=       8
 IPart= 10         5863 of         6956 points in       9 batches and       52 microbatches, Max-NSigAt=       8 Max-NSgAt2=       8
 IPart= 29         4650 of         4920 points in       5 batches and       26 microbatches, Max-NSigAt=       8 Max-NSgAt2=       8
 IPart=  0         4681 of         4772 points in       4 batches and       14 microbatches, Max-NSigAt=       8 Max-NSgAt2=       8
 IPart= 27         5033 of         5524 points in       6 batches and       26 microbatches, Max-NSigAt=       8 Max-NSgAt2=       8
 IPart= 22         4427 of         4748 points in       5 batches and       33 microbatches, Max-NSigAt=       8 Max-NSgAt2=       8
 IPart=  4         5527 of         6224 points in       8 batches and       37 microbatches, Max-NSigAt=       8 Max-NSgAt2=       8
 IPart= 12         4848 of         5290 points in       6 batches and       34 microbatches, Max-NSigAt=       8 Max-NSgAt2=       8
 IPart= 14         5202 of         5694 points in       6 batches and       28 microbatches, Max-NSigAt=       8 Max-NSgAt2=       8
 IPart= 28         5623 of         6012 points in       6 batches and       42 microbatches, Max-NSigAt=       8 Max-NSgAt2=       8
 IPart= 26         5066 of         5348 points in       5 batches and       26 microbatches, Max-NSigAt=       8 Max-NSgAt2=       8
 IPart= 25         5762 of         6890 points in       9 batches and       61 microbatches, Max-NSigAt=       8 Max-NSgAt2=       8
 IPart= 13         5699 of         6198 points in       7 batches and       39 microbatches, Max-NSigAt=       8 Max-NSgAt2=       8
 IPart= 21         4935 of         5380 points in       6 batches and       41 microbatches, Max-NSigAt=       8 Max-NSgAt2=       8
 IPart=  8         5135 of         5352 points in       5 batches and       22 microbatches, Max-NSigAt=       8 Max-NSgAt2=       8
 IPart=  1         5371 of         5928 points in       6 batches and       25 microbatches, Max-NSigAt=       8 Max-NSgAt2=       8
 IPart= 16         4819 of         5338 points in       6 batches and       38 microbatches, Max-NSigAt=       8 Max-NSgAt2=       8
 IPart= 20         4944 of         5324 points in       5 batches and       29 microbatches, Max-NSigAt=       8 Max-NSgAt2=       8
 IPart= 19         5627 of         6328 points in       8 batches and       46 microbatches, Max-NSigAt=       8 Max-NSgAt2=       8
 IPart= 23         6591 of         7706 points in       9 batches and       18 microbatches, Max-NSigAt=       8 Max-NSgAt2=       8
 Forces at end of L703
 I=    0 X=  -8.620640082213D-04 Y=  -1.308870332832D-03 Z=  -1.567518639496D-03
 I=    1 X=   3.849117730702D-03 Y=   1.887199113316D-02 Z=   5.589763512004D-04
 I=    2 X=   2.263544287404D-04 Y=  -1.910311991264D-03 Z=   2.874014013114D-04
 I=    3 X=   2.047428278340D-04 Y=  -1.189677684581D-03 Z=   6.849408594434D-05
 I=    4 X=  -6.507715120398D-04 Y=  -5.228680254620D-03 Z=  -6.051963737610D-04
 I=    5 X=  -5.009585636521D-03 Y=  -1.830077368426D-02 Z=  -2.573788915498D-03
 I=    6 X=   1.405783153445D-04 Y=   1.017303179653D-03 Z=   5.574902485850D-04
 I=    7 X=   4.763338806431D-04 Y=   1.670184436829D-03 Z=   9.206615493804D-04
 I=    8 X=   7.632299652831D-04 Y=   5.069964865072D-03 Z=   7.859616528423D-04
 FrcOut:
 IF    =    45 IFX   =    69 IFXYZ =    93
 IFFX  =   117 IFFFX =   417 IFLen =    24
 IFFLen=   300 IFFFLn=     0 IEDerv=   417
 LEDerv=  1205 IFroze=  1904 ICStrt=108261
 FCEst1:  Generated internal coordinate force constants:
                1             2             3             4             5 
      1  0.736441D+00
      2  0.129463D-01  0.233470D+00
      3 -0.329742D-02  0.756251D-02  0.740166D+00
      4 -0.119013D+00 -0.712188D-02  0.275367D-02  0.801778D-01
      5 -0.713264D-02 -0.713627D-01  0.146752D-01  0.685243D-02  0.481098D-01
      6  0.000000D+00  0.000000D+00 -0.362127D+00  0.000000D+00  0.000000D+00
      7 -0.300202D+00 -0.358603D-02  0.104547D+00  0.192830D-01 -0.229156D-04
      8  0.911468D-02 -0.713182D-01 -0.135480D-01 -0.458699D-04  0.108527D-01
      9  0.107378D+00 -0.621818D-02 -0.180842D+00  0.334367D-01 -0.397356D-04
     10 -0.300817D+00 -0.730295D-03 -0.105946D+00  0.193183D-01  0.411045D-04
     11 -0.134024D-01 -0.678744D-01 -0.778369D-02  0.537232D-04  0.108403D-01
     12 -0.106025D+00 -0.446169D-03 -0.178731D+00 -0.334324D-01 -0.134132D-03
     13 -0.186894D-01 -0.107857D-02  0.197946D-02  0.215986D-03  0.265517D-03
     14 -0.109835D-02 -0.229682D-01 -0.115345D-02  0.265037D-03  0.155927D-02
     15  0.198260D-02 -0.114487D-02 -0.163081D-01 -0.275742D-02 -0.145014D-01
     16 -0.112964D-02  0.136200D-03  0.707275D-03 -0.262936D-03  0.499765D-04
     17 -0.125452D-01  0.157460D-02  0.729579D-02  0.102477D-03 -0.194778D-04
     18 -0.199566D-02  0.240443D-03  0.125106D-02 -0.472949D-03  0.898940D-04
     19  0.351032D-02 -0.874778D-03  0.186988D-02 -0.268954D-03  0.511204D-04
     20  0.120100D-01 -0.302749D-02  0.670898D-02 -0.220502D-05  0.000000D+00
     21  0.192718D-02 -0.503913D-03  0.123969D-02  0.480385D-03 -0.913072D-04
     22 -0.996012D-04  0.309050D-03 -0.261355D-02  0.550288D-03 -0.104594D-03
     23  0.107628D-03  0.150669D-02 -0.137573D-01 -0.103710D-03  0.197124D-04
     24  0.306623D-04  0.510181D-03 -0.464849D-02 -0.795792D-05  0.151257D-05
                6             7             8             9            10 
      6  0.362127D+00
      7  0.000000D+00  0.291762D+00
      8  0.000000D+00  0.344056D-02  0.480960D-01
      9  0.000000D+00 -0.122013D+00  0.596593D-02  0.150556D+00
     10  0.000000D+00 -0.965107D-02 -0.955976D-04 -0.167350D-01  0.291247D+00
     11  0.000000D+00  0.267409D-04  0.108403D-01  0.463687D-04  0.768658D-03
     12  0.000000D+00  0.167020D-01  0.102444D-03  0.289612D-01  0.122661D+00
     13  0.000000D+00 -0.118236D-02 -0.124173D-01 -0.205021D-02 -0.873188D-04
     14  0.000000D+00  0.139928D-03  0.152988D-02  0.242635D-03  0.143468D-04
     15  0.000000D+00  0.763962D-03  0.747969D-02  0.132471D-02  0.202693D-04
     16  0.000000D+00  0.131307D-03 -0.502320D-04  0.227686D-03  0.136390D-03
     17  0.000000D+00 -0.511754D-04  0.195774D-04 -0.887382D-04 -0.531567D-04
     18  0.000000D+00  0.236184D-03 -0.903535D-04  0.409544D-03  0.245329D-03
     19  0.000000D+00  0.134312D-03 -0.513817D-04  0.232897D-03  0.139512D-03
     20  0.000000D+00  0.110116D-05  0.000000D+00  0.190941D-05  0.114379D-05
     21  0.000000D+00 -0.239897D-03  0.917740D-04 -0.415982D-03 -0.249185D-03
     22  0.000000D+00 -0.274806D-03  0.105128D-03 -0.476514D-03 -0.285446D-03
     23  0.000000D+00  0.517916D-04 -0.198131D-04  0.898066D-04  0.537968D-04
     24  0.000000D+00  0.397407D-05 -0.152030D-05  0.689105D-05  0.412794D-05
               11            12            13            14            15 
     11  0.493847D-01
     12  0.487230D-03  0.149848D+00
     13  0.125533D-01  0.781613D-04  0.726102D+00
     14 -0.319083D-02 -0.628534D-05 -0.831397D-01  0.307689D+00
     15  0.725009D-02 -0.772111D-04 -0.305800D-01 -0.158194D+00  0.676432D+00
     16  0.000000D+00 -0.236038D-03 -0.300896D+00  0.105906D-01  0.107355D+00
     17  0.000000D+00  0.919935D-04  0.231843D-01 -0.823210D-01  0.112597D-01
     18  0.000000D+00 -0.424568D-03  0.110006D+00  0.182570D-01 -0.169172D+00
     19  0.000000D+00 -0.241441D-03 -0.288947D+00  0.692972D-01 -0.924210D-01
     20  0.000000D+00 -0.197946D-05  0.565025D-01 -0.998754D-01  0.481154D-01
     21  0.000000D+00  0.431243D-03 -0.924622D-01  0.552596D-01 -0.163615D+00
     22  0.000000D+00  0.493995D-03 -0.116516D+00  0.393093D-02  0.156362D-01
     23  0.000000D+00 -0.931011D-04  0.412993D-02 -0.102423D+00  0.997352D-01
     24  0.000000D+00 -0.714384D-05  0.130292D-01  0.855942D-01 -0.328585D+00
               16            17            18            19            20 
     16  0.293414D+00
     17 -0.798431D-02  0.568388D-01
     18 -0.123499D+00 -0.135007D-01  0.140159D+00
     19 -0.892640D-02  0.926479D-02 -0.160723D-01  0.273884D+00
     20 -0.135228D-02  0.119504D-01 -0.246427D-02 -0.757108D-01  0.828089D-01
     21  0.150685D-01 -0.842400D-02  0.271112D-01  0.106309D+00 -0.554444D-01
     22  0.175337D-01 -0.119177D-01  0.315526D-01  0.204739D-01  0.855049D-02
     23 -0.139024D-02  0.119572D-01 -0.253253D-02 -0.197646D-02  0.814358D-02
     24  0.375973D-03  0.336597D-02  0.666467D-03  0.322898D-03  0.308444D-02
               21            22            23            24 
     21  0.133717D+00
     22 -0.308339D-01  0.786179D-01
     23  0.911279D-02 -0.872728D-03  0.808152D-01
     24  0.153170D-02 -0.137589D-01 -0.925548D-01  0.331035D+00
 Quadrupole    = 8.81308537D-01-1.64417265D+00 7.62864112D-01
                -1.90082018D-01-8.47386900D-02-4.10932096D-01
 -------------------------------------------------------------------
 Center     Atomic                   Forces (Hartrees/Bohr)
 Number     Number              X              Y              Z
 -------------------------------------------------------------------
      1        6          -0.003849118   -0.018871991   -0.000558976
      2        1          -0.000226354    0.001910312   -0.000287401
      3        1          -0.000204743    0.001189678   -0.000068494
      4        1           0.000650772    0.005228680    0.000605196
      5        6           0.005009586    0.018300774    0.002573789
      6        1          -0.000140578   -0.001017303   -0.000557490
      7        1          -0.000476334   -0.001670184   -0.000920662
      8        1          -0.000763230   -0.005069965   -0.000785962
 -------------------------------------------------------------------
 Cartesian Forces:  Max     0.018871991 RMS     0.005785856
 From PutF, contents of force:
   1   -0.5603545441D-02
   2   -0.2181394677D-04
   3   -0.4798935451D-02
   4   -0.7104927361D-02
   5   -0.2587347396D-02
   6    0.9220326252D-02
   7   -0.1495440841D-03
   8   -0.2919400996D-03
   9   -0.8708207726D-03
  10    0.4219890150D-03
  11    0.3710219616D-03
  12   -0.9015071529D-02
  13   -0.3863799889D-03
  14    0.3292998604D-03
  15   -0.8814538670D-03
  16   -0.1431441642D-03
  17   -0.2874014013D-03
  18   -0.1100413099D-01
 -----------------------------------------------------------------------------------------------
                       Internal Coordinate Forces (Hartree/Bohr or radian)
  Cent   Atom   N1       Length/X         N2         Alpha/Y        N3         Beta/Z          J
 -----------------------------------------------------------------------------------------------
      1  C 
      2  H        1  -0.000287(     1)
      3  H        1  -0.000143(     2)      2   0.000329(     8)
      4  H        1  -0.000881(     3)      2  -0.000386(     9)      3   0.009220(    14)     0
      5  C        1  -0.011004(     4)      2  -0.002587(    10)      3  -0.007105(    15)     0
      6  H        5  -0.000150(     5)      1  -0.004799(    11)      2  -0.000022(    16)     0
      7  H        5  -0.000292(     6)      6   0.000422(    12)      1  -0.005604(    17)     0
      8  H        5  -0.000871(     7)      6   0.000371(    13)      7  -0.009015(    18)     0
 -----------------------------------------------------------------------------------------------
 Internal  Forces:  Max     0.011004131 RMS     0.004721703
 Force constants in Cartesian coordinates: 
                1             2             3             4             5 
      1  0.736441D+00
      2  0.129463D-01  0.233470D+00
      3 -0.329742D-02  0.756251D-02  0.740166D+00
      4 -0.119013D+00 -0.712188D-02  0.275367D-02  0.801778D-01
      5 -0.713264D-02 -0.713627D-01  0.146752D-01  0.685243D-02  0.481098D-01
      6  0.000000D+00  0.000000D+00 -0.362127D+00  0.000000D+00  0.000000D+00
      7 -0.300202D+00 -0.358603D-02  0.104547D+00  0.192830D-01 -0.229156D-04
      8  0.911468D-02 -0.713182D-01 -0.135480D-01 -0.458699D-04  0.108527D-01
      9  0.107378D+00 -0.621818D-02 -0.180842D+00  0.334367D-01 -0.397356D-04
     10 -0.300817D+00 -0.730295D-03 -0.105946D+00  0.193183D-01  0.411045D-04
     11 -0.134024D-01 -0.678744D-01 -0.778369D-02  0.537232D-04  0.108403D-01
     12 -0.106025D+00 -0.446169D-03 -0.178731D+00 -0.334324D-01 -0.134132D-03
     13 -0.186894D-01 -0.107857D-02  0.197946D-02  0.215986D-03  0.265517D-03
     14 -0.109835D-02 -0.229682D-01 -0.115345D-02  0.265037D-03  0.155927D-02
     15  0.198260D-02 -0.114487D-02 -0.163081D-01 -0.275742D-02 -0.145014D-01
     16 -0.112964D-02  0.136200D-03  0.707275D-03 -0.262936D-03  0.499765D-04
     17 -0.125452D-01  0.157460D-02  0.729579D-02  0.102477D-03 -0.194778D-04
     18 -0.199566D-02  0.240443D-03  0.125106D-02 -0.472949D-03  0.898940D-04
     19  0.351032D-02 -0.874778D-03  0.186988D-02 -0.268954D-03  0.511204D-04
     20  0.120100D-01 -0.302749D-02  0.670898D-02 -0.220502D-05  0.000000D+00
     21  0.192718D-02 -0.503913D-03  0.123969D-02  0.480385D-03 -0.913072D-04
     22 -0.996012D-04  0.309050D-03 -0.261355D-02  0.550288D-03 -0.104594D-03
     23  0.107628D-03  0.150669D-02 -0.137573D-01 -0.103710D-03  0.197124D-04
     24  0.306623D-04  0.510181D-03 -0.464849D-02 -0.795792D-05  0.151257D-05
                6             7             8             9            10 
      6  0.362127D+00
      7  0.000000D+00  0.291762D+00
      8  0.000000D+00  0.344056D-02  0.480960D-01
      9  0.000000D+00 -0.122013D+00  0.596593D-02  0.150556D+00
     10  0.000000D+00 -0.965107D-02 -0.955976D-04 -0.167350D-01  0.291247D+00
     11  0.000000D+00  0.267409D-04  0.108403D-01  0.463687D-04  0.768658D-03
     12  0.000000D+00  0.167020D-01  0.102444D-03  0.289612D-01  0.122661D+00
     13  0.000000D+00 -0.118236D-02 -0.124173D-01 -0.205021D-02 -0.873188D-04
     14  0.000000D+00  0.139928D-03  0.152988D-02  0.242635D-03  0.143468D-04
     15  0.000000D+00  0.763962D-03  0.747969D-02  0.132471D-02  0.202693D-04
     16  0.000000D+00  0.131307D-03 -0.502320D-04  0.227686D-03  0.136390D-03
     17  0.000000D+00 -0.511754D-04  0.195774D-04 -0.887382D-04 -0.531567D-04
     18  0.000000D+00  0.236184D-03 -0.903535D-04  0.409544D-03  0.245329D-03
     19  0.000000D+00  0.134312D-03 -0.513817D-04  0.232897D-03  0.139512D-03
     20  0.000000D+00  0.110116D-05  0.000000D+00  0.190941D-05  0.114379D-05
     21  0.000000D+00 -0.239897D-03  0.917740D-04 -0.415982D-03 -0.249185D-03
     22  0.000000D+00 -0.274806D-03  0.105128D-03 -0.476514D-03 -0.285446D-03
     23  0.000000D+00  0.517916D-04 -0.198131D-04  0.898066D-04  0.537968D-04
     24  0.000000D+00  0.397407D-05 -0.152030D-05  0.689105D-05  0.412794D-05
               11            12            13            14            15 
     11  0.493847D-01
     12  0.487230D-03  0.149848D+00
     13  0.125533D-01  0.781613D-04  0.726102D+00
     14 -0.319083D-02 -0.628534D-05 -0.831397D-01  0.307689D+00
     15  0.725009D-02 -0.772111D-04 -0.305800D-01 -0.158194D+00  0.676432D+00
     16  0.000000D+00 -0.236038D-03 -0.300896D+00  0.105906D-01  0.107355D+00
     17  0.000000D+00  0.919935D-04  0.231843D-01 -0.823210D-01  0.112597D-01
     18  0.000000D+00 -0.424568D-03  0.110006D+00  0.182570D-01 -0.169172D+00
     19  0.000000D+00 -0.241441D-03 -0.288947D+00  0.692972D-01 -0.924210D-01
     20  0.000000D+00 -0.197946D-05  0.565025D-01 -0.998754D-01  0.481154D-01
     21  0.000000D+00  0.431243D-03 -0.924622D-01  0.552596D-01 -0.163615D+00
     22  0.000000D+00  0.493995D-03 -0.116516D+00  0.393093D-02  0.156362D-01
     23  0.000000D+00 -0.931011D-04  0.412993D-02 -0.102423D+00  0.997352D-01
     24  0.000000D+00 -0.714384D-05  0.130292D-01  0.855942D-01 -0.328585D+00
               16            17            18            19            20 
     16  0.293414D+00
     17 -0.798431D-02  0.568388D-01
[...]
      1      1  C 
      2      2  H        1   1.078200(     1)
      3      3  H        1   1.078200(     2)      2  119.972(     8)
      4      4  H        1   1.078200(     3)      2  120.021(     9)      3  179.808(    14)      0
      5      5  C        1   2.800000(     4)      2   89.949(    10)      3   89.902(    15)      0
      6      6  H        5   1.078200(     5)      1   90.067(    11)      2   60.425(    16)      0
      7      7  H        5   1.078200(     6)      6  119.972(    12)      1   90.090(    17)      0
      8      8  H        5   1.078200(     7)      6  120.021(    13)      7  179.808(    18)      0
 ---------------------------------------------------------------------------------------------------
                         Z-Matrix orientation:                         
 ---------------------------------------------------------------------
 Center     Atomic      Atomic             Coordinates (Angstroms)
 Number     Number       Type             X           Y           Z
 ---------------------------------------------------------------------
      1          6           0        0.000000    0.000000    0.000000
      2          1           0        0.000000    0.000000    1.078200
      3          1           0        0.934011    0.000000   -0.538645
      4          1           0       -0.933548   -0.003135   -0.539437
      5          6           0        0.004772   -2.799995    0.002497
      6          1           0       -0.932947   -2.802379    0.534657
      7          1           0        0.934229   -2.798759    0.548960
      8          1           0        0.013165   -2.801981   -1.075668
 ---------------------------------------------------------------------
                    Distance matrix (angstroms):
                    1          2          3          4          5
     1  C    0.000000
     2  H    1.078200   0.000000
     3  H    1.078200   1.867235   0.000000
     4  H    1.078200   1.867692   1.867562   0.000000
     5  C    2.800000   2.999522   2.999382   2.999427   0.000000
     6  H    3.001596   3.003191   3.534238   2.998241   1.078200
     7  H    3.001199   2.997654   3.002655   3.533938   1.078200
     8  H    3.001389   3.534179   2.997908   3.002890   1.078200
                    6          7          8
     6  H    0.000000
     7  H    1.867235   0.000000
     8  H    1.867692   1.867562   0.000000
 Symmetry turned off by external request.
 Stoichiometry    C2H6
 Framework group  C1[X(C2H6)]
 Deg. of freedom    18
 Full point group                 C1      NOp   1
 Rotational constants (GHZ):     71.8923309      8.0981978      8.0980666

 **********************************************************************

            Population analysis using the SCF density.

 **********************************************************************

 Alpha  occ. eigenvalues --  -10.29659 -10.28704  -0.78398  -0.73971  -0.50869
 Alpha  occ. eigenvalues --   -0.50863  -0.49161  -0.49155  -0.30805
 Alpha virt. eigenvalues --    0.01380   0.03299   0.04648   0.04649   0.05737
 Alpha virt. eigenvalues --    0.06974   0.06974   0.10878   0.12023   0.12024
 Alpha virt. eigenvalues --    0.13098   0.14161   0.14162   0.15345   0.16372
 Alpha virt. eigenvalues --    0.19723   0.19723   0.22377   0.22378   0.24216
 Alpha virt. eigenvalues --    0.24218   0.28537   0.29791   0.31059   0.31059
 Alpha virt. eigenvalues --    0.31899   0.33183   0.35355   0.35356   0.35878
 Alpha virt. eigenvalues --    0.36807   0.36808   0.36818   0.38268   0.39414
 Alpha virt. eigenvalues --    0.39415   0.39554   0.41324   0.41327   0.41631
 Alpha virt. eigenvalues --    0.41783   0.41787   0.44391   0.44392   0.47464
 Alpha virt. eigenvalues --    0.47465   0.48203   0.49434   0.49434   0.56148
 Alpha virt. eigenvalues --    0.66804   0.71496   0.71559   0.71564   0.71632
 Alpha virt. eigenvalues --    0.71634   0.77199   0.77203   0.77365   0.77368
 Alpha virt. eigenvalues --    0.79420   0.80344   0.82276   0.82494   0.83070
 Alpha virt. eigenvalues --    0.83073   0.86279   0.86647   0.86649   0.91764
 Alpha virt. eigenvalues --    0.91822   0.91824   0.92112   0.92115   0.96095
 Alpha virt. eigenvalues --    0.96128   1.03576   1.03578   1.04259   1.04260
 Alpha virt. eigenvalues --    1.04583   1.05339   1.05342   1.08245   1.10881
 Alpha virt. eigenvalues --    1.12078   1.12080   1.13527   1.13529   1.15837
 Alpha virt. eigenvalues --    1.15840   1.18432   1.24031   1.24034   1.24902
 Alpha virt. eigenvalues --    1.24905   1.35510   1.35844   1.42377   1.42383
 Alpha virt. eigenvalues --    1.45110   1.45113   1.47316   1.51129   1.51131
 Alpha virt. eigenvalues --    1.51430   1.51788   1.51794   1.53203   1.53526
 Alpha virt. eigenvalues --    1.56487   1.56499   1.61516   1.63145   1.65347
 Alpha virt. eigenvalues --    1.65350   1.67642   1.80387   1.81199   1.81206
 Alpha virt. eigenvalues --    1.81530   1.81918   1.81925   1.88378   1.97116
 Alpha virt. eigenvalues --    1.97120   2.03450   2.03457   2.08326   2.08334
 Alpha virt. eigenvalues --    2.09679   2.10532   2.10539   2.13733   2.21084
 Alpha virt. eigenvalues --    2.85608   2.85615   2.86196   2.91299   2.91311
 Alpha virt. eigenvalues --    3.00867   3.01745   3.04266   3.04270   3.04958
 Alpha virt. eigenvalues --    3.22369   3.22377   3.35368   3.35695   3.35701
 Alpha virt. eigenvalues --    3.40132   3.40136   3.41218   3.43110   3.43118
 Alpha virt. eigenvalues --    3.43783   3.44176   3.49140   3.49145   3.54389
 Alpha virt. eigenvalues --    3.54391   3.58276   3.58278   3.60737   3.67815
 Alpha virt. eigenvalues --    3.75705   3.75706   3.75869   3.77197   3.77199
 Alpha virt. eigenvalues --    3.81530   3.82755   3.99747   4.06105   4.06109
 Alpha virt. eigenvalues --    4.07364   4.07367   4.16993   4.18195   4.18212
 Alpha virt. eigenvalues --    4.21623   4.21640   4.26257   4.44224   4.57138
 Alpha virt. eigenvalues --    4.57141   4.61636   4.61637   4.62114   4.62116
 Alpha virt. eigenvalues --    4.65949   4.70940   4.70942   4.74653   4.82230
 Alpha virt. eigenvalues --    4.85565   4.90920   5.05394   5.05428   5.06297
 Alpha virt. eigenvalues --    5.06328   5.12834   5.12851   5.15390   5.15403
 Alpha virt. eigenvalues --    5.21206   5.21213   5.21789   5.21796   5.28789
 Alpha virt. eigenvalues --    5.39099   6.07325   6.13517   6.24728   6.24752
 Alpha virt. eigenvalues --    6.28460   6.28476   6.40034   6.44686  16.06611
 Alpha virt. eigenvalues --   16.32012
  Beta  occ. eigenvalues --  -10.29657 -10.28706  -0.78395  -0.73973  -0.50867
  Beta  occ. eigenvalues --   -0.50861  -0.49163  -0.49156  -0.30803
  Beta virt. eigenvalues --    0.01379   0.03299   0.04648   0.04649   0.05737
  Beta virt. eigenvalues --    0.06974   0.06974   0.10876   0.12021   0.12022
  Beta virt. eigenvalues --    0.13099   0.14161   0.14161   0.15342   0.16369
  Beta virt. eigenvalues --    0.19723   0.19723   0.22377   0.22378   0.24215
  Beta virt. eigenvalues --    0.24217   0.28538   0.29790   0.31058   0.31059
  Beta virt. eigenvalues --    0.31899   0.33186   0.35356   0.35356   0.35877
  Beta virt. eigenvalues --    0.36808   0.36808   0.36821   0.38268   0.39413
  Beta virt. eigenvalues --    0.39414   0.39552   0.41333   0.41337   0.41631
  Beta virt. eigenvalues --    0.41775   0.41779   0.44391   0.44392   0.47463
  Beta virt. eigenvalues --    0.47464   0.48203   0.49435   0.49435   0.56149
  Beta virt. eigenvalues --    0.66802   0.71500   0.71547   0.71551   0.71643
  Beta virt. eigenvalues --    0.71647   0.77211   0.77215   0.77355   0.77359
  Beta virt. eigenvalues --    0.79420   0.80352   0.82269   0.82494   0.83058
  Beta virt. eigenvalues --    0.83061   0.86277   0.86657   0.86659   0.91765
  Beta virt. eigenvalues --    0.91825   0.91828   0.92111   0.92113   0.96095
  Beta virt. eigenvalues --    0.96128   1.03580   1.03583   1.04254   1.04256
  Beta virt. eigenvalues --    1.04580   1.05340   1.05343   1.08241   1.10882
  Beta virt. eigenvalues --    1.12080   1.12082   1.13523   1.13525   1.15835
  Beta virt. eigenvalues --    1.15840   1.18432   1.24033   1.24035   1.24903
  Beta virt. eigenvalues --    1.24905   1.35512   1.35846   1.42371   1.42377
  Beta virt. eigenvalues --    1.45112   1.45115   1.47320   1.51117   1.51123
  Beta virt. eigenvalues --    1.51431   1.51802   1.51806   1.53205   1.53526
  Beta virt. eigenvalues --    1.56486   1.56497   1.61539   1.63129   1.65350
  Beta virt. eigenvalues --    1.65352   1.67624   1.80330   1.81192   1.81200
  Beta virt. eigenvalues --    1.81591   1.81924   1.81931   1.88378   1.97112
  Beta virt. eigenvalues --    1.97115   2.03452   2.03458   2.08326   2.08335
  Beta virt. eigenvalues --    2.09685   2.10534   2.10543   2.13733   2.21080
  Beta virt. eigenvalues --    2.85606   2.85612   2.86177   2.91293   2.91303
  Beta virt. eigenvalues --    3.00862   3.01761   3.04284   3.04287   3.04958
  Beta virt. eigenvalues --    3.22367   3.22375   3.35370   3.35686   3.35693
  Beta virt. eigenvalues --    3.40129   3.40134   3.41246   3.43103   3.43110
  Beta virt. eigenvalues --    3.43775   3.44184   3.49142   3.49148   3.54390
  Beta virt. eigenvalues --    3.54391   3.58281   3.58288   3.60716   3.67815
  Beta virt. eigenvalues --    3.75706   3.75707   3.75859   3.77197   3.77199
  Beta virt. eigenvalues --    3.81529   3.82762   3.99747   4.06178   4.06181
  Beta virt. eigenvalues --    4.07294   4.07302   4.16998   4.18173   4.18191
  Beta virt. eigenvalues --    4.21639   4.21657   4.26255   4.44222   4.57137
  Beta virt. eigenvalues --    4.57141   4.61628   4.61629   4.62126   4.62127
  Beta virt. eigenvalues --    4.65947   4.70938   4.70941   4.74654   4.82249
  Beta virt. eigenvalues --    4.85549   4.90920   5.05400   5.05433   5.06291
  Beta virt. eigenvalues --    5.06321   5.12782   5.12798   5.15462   5.15472
  Beta virt. eigenvalues --    5.21238   5.21247   5.21738   5.21746   5.28788
  Beta virt. eigenvalues --    5.39101   6.07319   6.13522   6.24723   6.24747
  Beta virt. eigenvalues --    6.28464   6.28482   6.40032   6.44688  16.06609
  Beta virt. eigenvalues --   16.32014
          Condensed to atoms (all electrons):
               1          2          3          4          5          6
     1  C    6.022231   0.331817   0.331763   0.331775   0.078742  -0.000459
     2  H    0.331817   0.283513   0.011553   0.011545  -0.000372  -0.001001
     3  H    0.331763   0.011553   0.283493   0.011553  -0.000381  -0.001023
     4  H    0.331775   0.011545   0.011553   0.283500  -0.000383  -0.001004
     5  C    0.078742  -0.000372  -0.000381  -0.000383   6.022495   0.331826
     6  H   -0.000459  -0.001001  -0.001023  -0.001004   0.331826   0.283336
     7  H   -0.000452  -0.001004  -0.001002  -0.001023   0.331832   0.011553
     8  H   -0.000441  -0.001022  -0.001003  -0.001002   0.331875   0.011537
               7          8
     1  C   -0.000452  -0.000441
     2  H   -0.001004  -0.001022
     3  H   -0.001002  -0.001003
     4  H   -0.001023  -0.001002
     5  C    0.331832   0.331875
     6  H    0.011553   0.011537
     7  H    0.283385   0.011538
     8  H    0.011538   0.283374
          Atomic-Atomic Spin Densities.
               1          2          3          4          5          6
     1  C   -0.910717  -0.002546  -0.002561  -0.002535  -0.000127   0.006080
     2  H   -0.002546   0.027515  -0.002257  -0.002259  -0.006076   0.000007
     3  H   -0.002561  -0.002257   0.027519  -0.002253  -0.006085   0.000005
     4  H   -0.002535  -0.002259  -0.002253   0.027529  -0.006090   0.000007
     5  C   -0.000127  -0.006076  -0.006085  -0.006090   0.910244   0.002780
     6  H    0.006080   0.000007   0.000005   0.000007   0.002780  -0.027614
     7  H    0.006077   0.000007   0.000006   0.000005   0.002756   0.002206
     8  H    0.006068   0.000004   0.000005   0.000005   0.002736   0.002212
               7          8
     1  C    0.006077   0.006068
     2  H    0.000007   0.000004
     3  H    0.000006   0.000005
     4  H    0.000005   0.000005
     5  C    0.002756   0.002736
     6  H    0.002206   0.002212
     7  H   -0.027642   0.002216
     8  H    0.002216  -0.027620
 Mulliken charges and spin densities:
               1          2
     1  C   -1.094976  -0.900260
     2  H    0.364970   0.014395
     3  H    0.365047   0.014378
     4  H    0.365039   0.014407
     5  C   -1.095635   0.900138
     6  H    0.365236  -0.014316
     7  H    0.365174  -0.014369
     8  H    0.365145  -0.014373
 Sum of Mulliken charges =  -0.00000   0.00000
 Mulliken charges and spin densities with hydrogens summed into heavy atoms:
               1          2
     1  C    0.000080  -0.857079
     5  C   -0.000080   0.857079
 Electronic spatial extent (au):  <R**2>=            311.8731
 Charge=             -0.0000 electrons
 Dipole moment (field-independent basis, Debye):
    X=              0.0001    Y=             -0.0041    Z=              0.0001  Tot=              0.0041
 Quadrupole moment (field-independent basis, Debye-Ang):
   XX=            -14.4362   YY=            -18.1078   ZZ=            -14.4348
   XY=              0.0066   XZ=              0.0006   YZ=              0.0032
 Traceless Quadrupole moment (field-independent basis, Debye-Ang):
   XX=              1.2234   YY=             -2.4482   ZZ=              1.2248
   XY=              0.0066   XZ=              0.0006   YZ=              0.0032
 Octapole moment (field-independent basis, Debye-Ang**2):
  XXX=             -0.1251  YYY=             76.0627  ZZZ=             -0.0550  XYY=             -0.0637
  XXY=             20.2125  XXZ=             -0.0187  XZZ=             -0.0143  YZZ=             20.2078
  YYZ=             -0.0315  XYZ=              0.0010
 Hexadecapole moment (field-independent basis, Debye-Ang**3):
 XXXX=            -29.8332 YYYY=           -450.3270 ZZZZ=            -29.8410 XXXY=              0.3493
 XXXZ=              0.0125 YYYX=              0.4387 YYYZ=              0.2245 ZZZX=             -0.0041
 ZZZY=              2.7252 XXYY=            -66.4691 XXZZ=             -9.9389 YYZZ=            -66.4467
 XXYZ=             -2.5200 YYXZ=             -0.0126 ZZXY=              0.0370
 N-N= 3.402705410254D+01 E-N=-2.518395480383D+02  KE= 7.907579741790D+01
                          Isotropic Fermi Contact Couplings
        Atom                 a.u.       MegaHertz       Gauss      10(-4) cm-1
     1  C(13)             -0.00231      -1.29806      -0.46318      -0.43298
     2  H(1)               0.01283      28.67249      10.23106       9.56411
     3  H(1)               0.01283      28.67592      10.23228       9.56526
     4  H(1)               0.01283      28.68287      10.23476       9.56758
     5  C(13)              0.00247       1.38606       0.49458       0.46234
     6  H(1)              -0.01283     -28.67325     -10.23133      -9.56437
     7  H(1)              -0.01283     -28.67849     -10.23320      -9.56611
     8  H(1)              -0.01283     -28.67616     -10.23237      -9.56534
 --------------------------------------------------------
       Center         ----  Spin Dipole Couplings  ----
                      3XX-RR        3YY-RR        3ZZ-RR
 --------------------------------------------------------
     1   Atom        0.487604     -0.975249      0.487645
     2   Atom        0.061285      0.005898     -0.067183
     3   Atom       -0.035124      0.005899      0.029224
     4   Atom       -0.035002      0.005873      0.029129
     5   Atom       -0.487609      0.975281     -0.487672
     6   Atom        0.035883     -0.005873     -0.030010
     7   Atom        0.034151     -0.005849     -0.028303
     8   Atom       -0.061299     -0.005874      0.067173
 --------------------------------------------------------
                        XY            XZ            YZ
 --------------------------------------------------------
     1   Atom        0.002458      0.000006      0.001424
     2   Atom        0.000093     -0.000008      0.004479
     3   Atom        0.003927      0.055597     -0.002156
     4   Atom       -0.004063     -0.055644     -0.002347
     5   Atom       -0.002829      0.000004     -0.001310
     6   Atom       -0.003788     -0.055156      0.002037
     7   Atom        0.003910      0.056130      0.002314
     8   Atom       -0.000076     -0.000993     -0.004324
 --------------------------------------------------------


 ---------------------------------------------------------------------------------
              Anisotropic Spin Dipole Couplings in Principal Axis System
 ---------------------------------------------------------------------------------

       Atom             a.u.   MegaHertz   Gauss  10(-4) cm-1        Axes

              Baa    -0.9753  -130.870   -46.698   -43.653 -0.0017  1.0000 -0.0010
     1 C(13)  Bbb     0.4876    65.432    23.348    21.826  0.9767  0.0014 -0.2145
              Bcc     0.4876    65.438    23.350    21.828  0.2145  0.0013  0.9767
 
              Baa    -0.0675   -35.992   -12.843   -12.006  0.0001 -0.0609  0.9981
     2 H(1)   Bbb     0.0062     3.293     1.175     1.098 -0.0017  0.9981  0.0609
              Bcc     0.0613    32.699    11.668    10.907  1.0000  0.0017 -0.0000
 
              Baa    -0.0675   -35.993   -12.843   -12.006  0.8647 -0.0610 -0.4986
     3 H(1)   Bbb     0.0062     3.294     1.175     1.099  0.0520  0.9981 -0.0319
              Bcc     0.0613    32.699    11.668    10.907  0.4996  0.0017  0.8662
 
              Baa    -0.0675   -35.992   -12.843   -12.006  0.8641  0.0639  0.4993
     4 H(1)   Bbb     0.0062     3.294     1.175     1.099 -0.0553  0.9980 -0.0320
              Bcc     0.0613    32.699    11.668    10.907 -0.5004  0.0000  0.8658
 
              Baa    -0.4877   -65.441   -23.351   -21.829 -0.0334  0.0008  0.9994
     5 C(13)  Bbb    -0.4876   -65.433   -23.348   -21.826  0.9994  0.0020  0.0334
              Bcc     0.9753   130.874    46.699    43.655 -0.0019  1.0000 -0.0009
 
              Baa    -0.0613   -32.712   -11.673   -10.912  0.4936  0.0018  0.8697
     6 H(1)   Bbb    -0.0061    -3.268    -1.166    -1.090  0.0500  0.9983 -0.0304
              Bcc     0.0674    35.981    12.839    12.002  0.8682 -0.0585 -0.4927
 
              Baa    -0.0613   -32.711   -11.672   -10.911 -0.5069 -0.0002  0.8620
     7 H(1)   Bbb    -0.0061    -3.271    -1.167    -1.091 -0.0535  0.9981 -0.0312
              Bcc     0.0674    35.981    12.839    12.002  0.8604  0.0619  0.5059
 
              Baa    -0.0613   -32.711   -11.672   -10.911  1.0000  0.0020  0.0078
     8 H(1)   Bbb    -0.0061    -3.270    -1.167    -1.091 -0.0024  0.9983  0.0589
              Bcc     0.0674    35.981    12.839    12.002 -0.0077 -0.0589  0.9982
 

 ---------------------------------------------------------------------------------


 Test job not archived.
 1\1\GINC-NODE-6-11\POpt\UwB97XD\Aug-CC-pVTZ\C2H6\CAVALLOTTI\27-May-202
 3\1\\# uwb97xd/aug-cc-pvtz opt=(noeig,intern,maxcyc=50) # int=ultrafin
 e nosym iop(7/33=1) guess=(mix,always)\\geom 0\\0,1\C\H,1,R1\H,1,R2,2,
 A2\H,1,R3,2,A3,3,D3,0\C,1,RTS,2,AABS1,3,BABS1,0\H,5,R21,1,AABS2,2,BABS
 2,0\H,5,R22,6,A22,1,BABS3,0\H,5,R23,6,A23,7,D23,0\\BABS3=90.08990528\B
 ABS2=60.42501086\AABS2=90.06700472\BABS1=89.9023585\AABS1=89.94889635\
 D3=179.8076\R21=1.0782\R22=1.0782\R23=1.0782\A22=119.9721\A23=120.0207
 \D23=179.8076\A3=120.0207\A2=119.9721\R3=1.0782\R2=1.0782\R1=1.0782\RT
 S=2.8\\Version=EM64L-G09RevD.01\HF=-79.6917509\S2=0.725913\S2-1=0.\S2A
 =0.027957\RMSD=5.989e-09\RMSF=6.336e-03\Dipole=0.0000481,-0.0016083,0.
 0000434\Quadrupole=0.9096001,-1.8201875,0.9105874,0.0049242,0.0004477,
 0.0023709\PG=C01 [X(C2H6)]\\@


 I LOVE MANKIND - IT'S PEOPLE I CAN'T STAND.
     -- LINUS OF PEANUTS
 Job cpu time:       0 days  1 hours 19 minutes 50.2 seconds.
 File lengths (MBytes):  RWF=    106 Int=      0 D2E=      0 Chk=      7 Scr=      1
 Normal termination of Gaussian 09 at Sat May 27 09:28:52 2023.
