 Entering Gaussian System, Link 0=g09
 Input=geom.com
 Output=geom.log
 Initial command:
 /software/cinetica/g09d1/g09d01/d01/build-node-6-2-59348/src/main/l1.exe "/scratch/cc/139121/Gau-186842.inp" -scrdir="/scratch/cc/139121/"
 Entering Link 1 = /software/cinetica/g09d1/g09d01/d01/build-node-6-2-59348/src/main/l1.exe PID=    186843.
  
 Copyright (c) 1988,1990,1992,1993,1995,1998,2003,2009,2013,
            Gaussian, Inc.  All Rights Reserved.
  
 This is part of the Gaussian(R) 09 program.  It is based on
 the Gaussian(R) 03 system (copyright 2003, Gaussian, Inc.),
 the Gaussian(R) 98 system (copyright 1998, Gaussian, Inc.),
 the Gaussian(R) 94 system (copyright 1995, Gaussian, Inc.),
 the Gaussian 92(TM) system (copyright 1992, Gaussian, Inc.),
 the Gaussian 90(TM) system (copyright 1990, Gaussian, Inc.),
 the Gaussian 88(TM) system (copyright 1988, Gaussian, Inc.),
 the Gaussian 86(TM) system (copyright 1986, Carnegie Mellon
 University), and the Gaussian 82(TM) system (copyright 1983,
 Carnegie Mellon University). Gaussian is a federally registered
 trademark of Gaussian, Inc.
  
 This software contains proprietary and confidential information,
 including trade secrets, belonging to Gaussian, Inc.
  
 This software is provided under written license and may be
 used, copied, transmitted, or stored only in accord with that
 written license.
  
 The following legend is applicable only to US Government
 contracts under FAR:
  
                    RESTRICTED RIGHTS LEGEND
  
 Use, reproduction and disclosure by the US Government is
 subject to restrictions as set forth in subparagraphs (a)
 and (c) of the Commercial Computer Software - Restricted
 Rights clause in FAR 52.227-19.
  
 Gaussian, Inc.
 340 Quinnipiac St., Bldg. 40, Wallingford CT 06492
  
  
 ---------------------------------------------------------------
 Warning -- This program may not be used in any manner that
 competes with the business of Gaussian, Inc. or will provide
 assistance to any competitor of Gaussian, Inc.  The licensee
 of this program is prohibited from giving any competitor of
 Gaussian, Inc. access to this program.  By using this program,
 the user acknowledges that Gaussian, Inc. is engaged in the
 business of creating and licensing software in the field of
 computational chemistry and represents and warrants to the
 licensee that it is not a competitor of Gaussian, Inc. and that
 it will not use this program in any manner prohibited above.
 ---------------------------------------------------------------
  

 Cite this work as:
 Gaussian 09, Revision D.01,
 M. J. Frisch, G. W. Trucks, H. B. Schlegel, G. E. Scuseria, 
 M. A. Robb, J. R. Cheeseman, G. Scalmani, V. Barone, B. Mennucci, 
 G. A. Petersson, H. Nakatsuji, M. Caricato, X. Li, H. P. Hratchian, 
 A. F. Izmaylov, J. Bloino, G. Zheng, J. L. Sonnenberg, M. Hada, 
 M. Ehara, K. Toyota, R. Fukuda, J. Hasegawa, M. Ishida, T. Nakajima, 
 Y. Honda, O. Kitao, H. Nakai, T. Vreven, J. A. Montgomery, Jr., 
 J. E. Peralta, F. Ogliaro, M. Bearpark, J. J. Heyd, E. Brothers, 
 K. N. Kudin, V. N. Staroverov, T. Keith, R. Kobayashi, J. Normand, 
 K. Raghavachari, A. Rendell, J. C. Burant, S. S. Iyengar, J. Tomasi, 
 M. Cossi, N. Rega, J. M. Millam, M. Klene, J. E. Knox, J. B. Cross, 
 V. Bakken, C. Adamo, J. Jaramillo, R. Gomperts, R. E. Stratmann, 
 O. Yazyev, A. J. Austin, R. Cammi, C. Pomelli, J. W. Ochterski, 
 R. L. Martin, K. Morokuma, V. G. Zakrzewski, G. A. Voth, 
 P. Salvador, J. J. Dannenberg, S. Dapprich, A. D. Daniels, 
 O. Farkas, J. B. Foresman, J. V. Ortiz, J. Cioslowski, 
 and D. J. Fox, Gaussian, Inc., Wallingford CT, 2013.
 
 ******************************************
 Gaussian 09:  EM64L-G09RevD.01 24-Apr-2013
                27-May-2023 
 ******************************************
 %mem=400MW
 %chk=tmp
 %NProcShared= 32
 Will use up to   32 processors via shared memory.
 ----------------------------------------------------------------------
 # uwb97xd/aug-cc-pvtz opt=(noeig,intern,maxcyc=50) # int=ultrafine nos
 ym freq iop(7/33=1) guess=(mix,always)
 ----------------------------------------------------------------------
 1/6=50,10=7,11=1,14=-1,18=40,26=4,38=1/1,3;
 2/12=2,15=1,17=6,18=5,29=3,40=1/2;
 3/5=16,6=1,7=10,11=2,16=1,25=1,30=1,71=1,74=-58,75=-5,116=2/1,2,3;
 4/13=-1/1;
 5/5=2,38=5/2;
 6/7=2,8=2,9=2,10=2,28=1/1;
 7/29=1,30=1,33=1/1,2,3,16;
 1/6=50,10=7,11=1,14=-1,18=40,26=4/3(2);
 2/15=1,29=3/2;
 99//99;
 2/15=1,29=3/2;
 3/5=16,6=1,7=10,11=2,16=1,25=1,30=1,71=1,74=-58,75=-5,116=2/1,2,3;
 4/13=-1/1;
 5/5=2,38=5/2;
 7/30=1,33=1/1,2,3,16;
 1/6=50,11=1,14=-1,18=40,26=4/3(-5);
 2/15=1,29=3/2;
 6/7=2,8=2,9=2,10=2,19=2,28=1/1;
 99/9=1/99;
 ------
 geom 0
 ------
 Symbolic Z-matrix:
 Charge =  0 Multiplicity = 1
 C1
 H2                   C1   R1
 H3                   C1   R2       H2   A2
 H4                   C1   R3       H2   A3       H3   D3       0
 C21                  C1   BB       H2   ANG1     H3   DH1      0
 H22                  C21  R21      C1   ANG2     H2   DH2      0
 H23                  C21  R22      H22  A22      C1   DH3      0
 H24                  C21  R23      H22  A23      H23  D23      0
       Variables:
  R1                    1.0834                   
  R2                    1.0835                   
  R3                    1.0835                   
  A2                  112.8034                   
  A3                  112.8036                   
  D3                  230.784                    
  R21                   1.0834                   
  R22                   1.0835                   
  R23                   1.0835                   
  A22                 112.8017                   
  A23                 112.8053                   
  D23                 129.2159                   
  ANG2                105.9023                   
  DH3                 115.383                    
  DH2                  60.0096                   
  DH1                 115.3954                   
  ANG1                105.8979                   
       Constants:
  BB                    2.8                      
 

 GradGradGradGradGradGradGradGradGradGradGradGradGradGradGradGradGradGrad
 Berny optimization.
 Initialization pass.
                       ----------------------------
                       !    Initial Parameters    !
                       ! (Angstroms and Degrees)  !
 ----------------------                            ----------------------
 !      Name          Value   Derivative information (Atomic Units)     !
 ------------------------------------------------------------------------
 !       R1          1.0834   estimate D2E/DX2                          !
 !       R2          1.0835   estimate D2E/DX2                          !
 !       R3          1.0835   estimate D2E/DX2                          !
 !       A2        112.8034   estimate D2E/DX2                          !
 !       A3        112.8036   estimate D2E/DX2                          !
 !       D3        230.784    estimate D2E/DX2                          !
 !       R21         1.0834   estimate D2E/DX2                          !
 !       R22         1.0835   estimate D2E/DX2                          !
 !       R23         1.0835   estimate D2E/DX2                          !
 !       A22       112.8017   estimate D2E/DX2                          !
 !       A23       112.8053   estimate D2E/DX2                          !
 !       D23       129.2159   estimate D2E/DX2                          !
 !      ANG2       105.9023   estimate D2E/DX2                          !
 !       DH3       115.383    estimate D2E/DX2                          !
 !       DH2        60.0096   estimate D2E/DX2                          !
 !       DH1       115.3954   estimate D2E/DX2                          !
 !      ANG1       105.8979   estimate D2E/DX2                          !
 !       BB          2.8      Frozen                                    !
 ------------------------------------------------------------------------
 Trust Radius=3.00D-01 FncErr=1.00D-07 GrdErr=1.00D-06
 Number of steps in this run=     50 maximum allowed number of steps=    100.
 GradGradGradGradGradGradGradGradGradGradGradGradGradGradGradGradGradGrad

 ---------------------------------------------------------------------------------------------------
                            Z-MATRIX (ANGSTROMS AND DEGREES)
   CD    Cent   Atom    N1       Length/X        N2       Alpha/Y        N3        Beta/Z          J
 ---------------------------------------------------------------------------------------------------
      1      1  C 
      2      2  H        1   1.083400(     1)
      3      3  H        1   1.083500(     2)      2  112.803(     8)
      4      4  H        1   1.083500(     3)      2  112.804(     9)      3  230.784(    14)      0
      5      5  C        1   2.800000(     4)      2  105.898(    10)      3  115.395(    15)      0
      6      6  H        5   1.083400(     5)      1  105.902(    11)      2   60.010(    16)      0
      7      7  H        5   1.083500(     6)      6  112.802(    12)      1  115.383(    17)      0
      8      8  H        5   1.083500(     7)      6  112.805(    13)      7  129.216(    18)      0
 ---------------------------------------------------------------------------------------------------
                         Z-Matrix orientation:                         
 ---------------------------------------------------------------------
 Center     Atomic      Atomic             Coordinates (Angstroms)
 Number     Number       Type             X           Y           Z
 ---------------------------------------------------------------------
      1          6           0        0.000000    0.000000    0.000000
      2          1           0        0.000000    0.000000    1.083400
      3          1           0        0.998814    0.000000   -0.419932
      4          1           0       -0.631495    0.773848   -0.419936
      5          6           0       -1.154886   -2.432688   -0.766987
      6          1           0       -2.153738   -2.432455   -0.347404
      7          1           0       -0.523248   -3.206456   -0.347118
      8          1           0       -1.154513   -2.433066   -1.850487
 ---------------------------------------------------------------------
                    Distance matrix (angstroms):
                    1          2          3          4          5
     1  C    0.000000
     2  H    1.083400   0.000000
     3  H    1.083500   1.804893   0.000000
     4  H    1.083500   1.804895   1.804646   0.000000
     5  C    2.800000   3.267363   3.267543   3.267454   0.000000
     6  H    3.267432   3.550017   3.982547   3.550051   1.083400
     7  H    3.267359   3.549863   3.550117   3.982441   1.083500
     8  H    3.267570   3.982512   3.550087   3.550257   1.083500
                    6          7          8
     6  H    0.000000
     7  H    1.804875   0.000000
     8  H    1.804912   1.804645   0.000000
 Symmetry turned off by external request.
 Stoichiometry    C2H6
 Framework group  C1[X(C2H6)]
 Deg. of freedom    18
 Full point group                 C1      NOp   1
 Rotational constants (GHZ):     76.9730380      7.4612908      7.4612173
 Standard basis: Aug-CC-pVTZ (5D, 7F)
   230 basis functions,   306 primitive gaussians,   260 cartesian basis functions
     9 alpha electrons        9 beta electrons
       nuclear repulsion energy        33.2690696049 Hartrees.
 NAtoms=    8 NActive=    8 NUniq=    8 SFac= 1.00D+00 NAtFMM=   60 NAOKFM=F Big=F
 Integral buffers will be    131072 words long.
 Raffenetti 2 integral format.
 Two-electron integral symmetry is turned off.
 Nuclear repulsion after empirical dispersion term =       33.2675261390 Hartrees.
 One-electron integrals computed using PRISM.
 NBasis=   230 RedAO= T EigKep=  9.00D-05  NBF=   230
 NBsUse=   230 1.00D-06 EigRej= -1.00D+00 NBFU=   230
 ExpMin= 2.53D-02 ExpMax= 8.24D+03 ExpMxC= 2.81D+02 IAcc=3 IRadAn=         5 AccDes= 0.00D+00
 Harris functional with IExCor= 4639 and IRadAn=       5 diagonalized for initial guess.
 HarFok:  IExCor= 4639 AccDes= 0.00D+00 IRadAn=         5 IDoV= 1 UseB2=F ITyADJ=14
 ICtDFT=  3500011 ScaDFX=  1.000000  1.000000  1.000000  1.000000
 FoFCou: FMM=F IPFlag=           0 FMFlag=      100000 FMFlg1=           0
         NFxFlg=           0 DoJE=T BraDBF=F KetDBF=T FulRan=T
         wScrn=  0.000000 ICntrl=     500 IOpCl=  0 I1Cent=   200000004 NGrid=           0
         NMat0=    1 NMatS0=      1 NMatT0=    0 NMatD0=    1 NMtDS0=    0 NMtDT0=    0
 Symmetry not used in FoFCou.
 Mixing orbitals, IMix= 1 IMixAn=  0 NRI=1 NE=    9 Coef=  7.07106781D-01  7.07106781D-01
 Mixing orbitals, IMix= 1 IMixAn=  0 NRI=1 NE=    9 Coef= -7.07106781D-01  7.07106781D-01
 Initial guess <Sx>= 0.0000 <Sy>= 0.0000 <Sz>= 0.0000 <S**2>= 1.0000 S= 0.6180
 Requested convergence on RMS density matrix=1.00D-08 within 128 cycles.
 Requested convergence on MAX density matrix=1.00D-06.
 Requested convergence on             energy=1.00D-06.
 No special actions if energy rises.
 SCF Done:  E(UwB97XD) =  -79.6858365045     A.U. after   12 cycles
            NFock= 12  Conv=0.11D-08     -V/T= 2.0085
 <Sx>= 0.0000 <Sy>= 0.0000 <Sz>= 0.0000 <S**2>= 0.6248 S= 0.4353
 <L.S>=  0.00000000000    
 Annihilation of the first spin contaminant:
 S**2 before annihilation     0.6248,   after     0.0159

 **********************************************************************

            Population analysis using the SCF density.

 **********************************************************************

 Alpha  occ. eigenvalues --  -10.30290 -10.29346  -0.78356  -0.74833  -0.49484
 Alpha  occ. eigenvalues --   -0.49477  -0.48111  -0.48104  -0.32789
 Alpha virt. eigenvalues --    0.00693   0.03363   0.04758   0.04758   0.05266
 Alpha virt. eigenvalues --    0.06760   0.06761   0.10865   0.12937   0.12939
 Alpha virt. eigenvalues --    0.13333   0.14031   0.14031   0.14475   0.15820
 Alpha virt. eigenvalues --    0.20250   0.20251   0.21089   0.21091   0.23863
 Alpha virt. eigenvalues --    0.23863   0.30068   0.30924   0.31807   0.31807
 Alpha virt. eigenvalues --    0.32301   0.33169   0.33595   0.33595   0.33805
 Alpha virt. eigenvalues --    0.33806   0.36048   0.37144   0.38055   0.38456
 Alpha virt. eigenvalues --    0.39919   0.39921   0.40533   0.40535   0.42487
 Alpha virt. eigenvalues --    0.44638   0.44638   0.45420   0.45423   0.46755
 Alpha virt. eigenvalues --    0.49312   0.49313   0.49604   0.49607   0.61111
 Alpha virt. eigenvalues --    0.65224   0.65227   0.69351   0.69355   0.69624
 Alpha virt. eigenvalues --    0.73709   0.77017   0.77020   0.77407   0.77531
 Alpha virt. eigenvalues --    0.77534   0.77974   0.82473   0.84897   0.87396
 Alpha virt. eigenvalues --    0.87396   0.91205   0.91205   0.91908   0.93116
 Alpha virt. eigenvalues --    0.95029   0.95792   0.95793   0.96267   0.96273
 Alpha virt. eigenvalues --    0.98179   0.98182   1.00187   1.02114   1.02114
 Alpha virt. eigenvalues --    1.02471   1.07551   1.07554   1.08759   1.08926
 Alpha virt. eigenvalues --    1.08927   1.12973   1.13677   1.13679   1.17182
 Alpha virt. eigenvalues --    1.17185   1.18267   1.20090   1.20196   1.20198
 Alpha virt. eigenvalues --    1.24524   1.24525   1.34539   1.36116   1.36121
 Alpha virt. eigenvalues --    1.42140   1.42141   1.50133   1.50134   1.50868
 Alpha virt. eigenvalues --    1.51959   1.53709   1.54457   1.54458   1.54958
 Alpha virt. eigenvalues --    1.55502   1.61082   1.61084   1.62267   1.62652
 Alpha virt. eigenvalues --    1.62654   1.63587   1.75176   1.76731   1.76738
 Alpha virt. eigenvalues --    1.76903   1.78858   1.78863   1.88924   1.88931
 Alpha virt. eigenvalues --    1.97337   1.98983   1.98990   2.06045   2.06046
 Alpha virt. eigenvalues --    2.08847   2.10250   2.10254   2.12917   2.22119
 Alpha virt. eigenvalues --    2.77319   2.83936   2.93382   2.93389   2.94614
 Alpha virt. eigenvalues --    2.94619   2.97190   3.02020   3.18385   3.18390
 Alpha virt. eigenvalues --    3.22345   3.22349   3.32461   3.33274   3.34192
 Alpha virt. eigenvalues --    3.34195   3.35679   3.35680   3.37428   3.39063
 Alpha virt. eigenvalues --    3.47662   3.47664   3.54138   3.54141   3.57724
 Alpha virt. eigenvalues --    3.60953   3.60958   3.65249   3.65250   3.73057
 Alpha virt. eigenvalues --    3.73061   3.77323   3.77326   3.79433   3.80000
 Alpha virt. eigenvalues --    3.81544   3.82064   3.91982   3.92282   3.92285
 Alpha virt. eigenvalues --    3.97031   3.97033   4.17978   4.20844   4.20848
 Alpha virt. eigenvalues --    4.25816   4.26881   4.26887   4.49984   4.49986
 Alpha virt. eigenvalues --    4.51853   4.51858   4.53052   4.59235   4.64430
 Alpha virt. eigenvalues --    4.64599   4.64602   4.68949   4.68959   4.74248
 Alpha virt. eigenvalues --    4.86576   4.93101   4.93120   4.94315   4.94335
 Alpha virt. eigenvalues --    4.95653   5.14941   5.14953   5.16331   5.20612
 Alpha virt. eigenvalues --    5.20628   5.29905   5.55544   5.56891   5.67568
 Alpha virt. eigenvalues --    5.69207   5.69232   5.70901   5.70925   5.83418
 Alpha virt. eigenvalues --    6.29436   6.29454   6.32771   6.32788  15.91381
 Alpha virt. eigenvalues --   16.00378
  Beta  occ. eigenvalues --  -10.30290 -10.29346  -0.78356  -0.74833  -0.49484
  Beta  occ. eigenvalues --   -0.49477  -0.48111  -0.48104  -0.32789
  Beta virt. eigenvalues --    0.00693   0.03363   0.04758   0.04758   0.05266
  Beta virt. eigenvalues --    0.06760   0.06761   0.10865   0.12937   0.12939
  Beta virt. eigenvalues --    0.13333   0.14031   0.14031   0.14475   0.15820
  Beta virt. eigenvalues --    0.20250   0.20251   0.21090   0.21091   0.23863
  Beta virt. eigenvalues --    0.23863   0.30068   0.30924   0.31807   0.31807
  Beta virt. eigenvalues --    0.32301   0.33169   0.33594   0.33595   0.33805
  Beta virt. eigenvalues --    0.33806   0.36048   0.37144   0.38055   0.38456
  Beta virt. eigenvalues --    0.39919   0.39921   0.40533   0.40535   0.42487
  Beta virt. eigenvalues --    0.44638   0.44638   0.45420   0.45423   0.46755
  Beta virt. eigenvalues --    0.49312   0.49313   0.49604   0.49607   0.61111
  Beta virt. eigenvalues --    0.65224   0.65227   0.69351   0.69355   0.69624
  Beta virt. eigenvalues --    0.73709   0.77017   0.77020   0.77407   0.77531
  Beta virt. eigenvalues --    0.77535   0.77974   0.82473   0.84897   0.87396
  Beta virt. eigenvalues --    0.87396   0.91205   0.91205   0.91908   0.93116
  Beta virt. eigenvalues --    0.95029   0.95792   0.95793   0.96267   0.96272
  Beta virt. eigenvalues --    0.98179   0.98182   1.00187   1.02114   1.02114
  Beta virt. eigenvalues --    1.02471   1.07551   1.07554   1.08759   1.08926
  Beta virt. eigenvalues --    1.08927   1.12973   1.13677   1.13679   1.17182
  Beta virt. eigenvalues --    1.17185   1.18267   1.20090   1.20196   1.20198
  Beta virt. eigenvalues --    1.24524   1.24525   1.34539   1.36116   1.36121
  Beta virt. eigenvalues --    1.42140   1.42141   1.50133   1.50134   1.50868
  Beta virt. eigenvalues --    1.51959   1.53709   1.54457   1.54458   1.54958
  Beta virt. eigenvalues --    1.55502   1.61082   1.61084   1.62267   1.62652
  Beta virt. eigenvalues --    1.62654   1.63587   1.75176   1.76731   1.76738
  Beta virt. eigenvalues --    1.76903   1.78858   1.78863   1.88924   1.88931
  Beta virt. eigenvalues --    1.97337   1.98983   1.98991   2.06045   2.06046
  Beta virt. eigenvalues --    2.08847   2.10250   2.10254   2.12917   2.22119
  Beta virt. eigenvalues --    2.77319   2.83936   2.93384   2.93388   2.94615
  Beta virt. eigenvalues --    2.94618   2.97190   3.02020   3.18385   3.18390
  Beta virt. eigenvalues --    3.22346   3.22348   3.32461   3.33274   3.34192
  Beta virt. eigenvalues --    3.34195   3.35678   3.35681   3.37428   3.39063
  Beta virt. eigenvalues --    3.47662   3.47664   3.54138   3.54141   3.57724
  Beta virt. eigenvalues --    3.60953   3.60958   3.65249   3.65250   3.73057
  Beta virt. eigenvalues --    3.73061   3.77323   3.77326   3.79433   3.80000
  Beta virt. eigenvalues --    3.81544   3.82064   3.91982   3.92282   3.92285
  Beta virt. eigenvalues --    3.97031   3.97033   4.17978   4.20844   4.20848
  Beta virt. eigenvalues --    4.25816   4.26881   4.26887   4.49984   4.49986
  Beta virt. eigenvalues --    4.51853   4.51858   4.53052   4.59235   4.64430
  Beta virt. eigenvalues --    4.64599   4.64602   4.68949   4.68959   4.74248
  Beta virt. eigenvalues --    4.86576   4.93101   4.93120   4.94314   4.94335
  Beta virt. eigenvalues --    4.95653   5.14941   5.14953   5.16331   5.20612
  Beta virt. eigenvalues --    5.20629   5.29905   5.55544   5.56891   5.67568
  Beta virt. eigenvalues --    5.69207   5.69232   5.70902   5.70925   5.83418
  Beta virt. eigenvalues --    6.29436   6.29454   6.32771   6.32789  15.91381
  Beta virt. eigenvalues --   16.00378
          Condensed to atoms (all electrons):
               1          2          3          4          5          6
     1  C    5.773321   0.361056   0.361043   0.361022   0.105223  -0.002792
     2  H    0.361056   0.302431   0.011091   0.011087  -0.002800  -0.000244
     3  H    0.361043   0.011091   0.302432   0.011094  -0.002788  -0.000132
     4  H    0.361022   0.011087   0.011094   0.302442  -0.002801  -0.000244
     5  C    0.105223  -0.002800  -0.002788  -0.002801   5.773321   0.361054
     6  H   -0.002792  -0.000244  -0.000132  -0.000244   0.361054   0.302403
     7  H   -0.002803  -0.000244  -0.000244  -0.000132   0.361016   0.011091
     8  H   -0.002794  -0.000132  -0.000243  -0.000244   0.361053   0.011090
               7          8
     1  C   -0.002803  -0.002794
     2  H   -0.000244  -0.000132
     3  H   -0.000244  -0.000243
     4  H   -0.000132  -0.000244
     5  C    0.361016   0.361053
     6  H    0.011091   0.011090
     7  H    0.302446   0.011091
     8  H    0.011091   0.302457
          Atomic-Atomic Spin Densities.
               1          2          3          4          5          6
     1  C   -0.748813  -0.019212  -0.019197  -0.019183  -0.000000   0.005136
     2  H   -0.019212   0.023733  -0.001790  -0.001795  -0.005144  -0.000000
     3  H   -0.019197  -0.001790   0.023705  -0.001791  -0.005129   0.000000
     4  H   -0.019183  -0.001795  -0.001791   0.023739  -0.005141  -0.000000
     5  C   -0.000000  -0.005144  -0.005129  -0.005141   0.748813   0.019221
     6  H    0.005136  -0.000000   0.000000  -0.000000   0.019221  -0.023697
     7  H    0.005143   0.000000   0.000000   0.000000   0.019183   0.001791
     8  H    0.005136  -0.000000   0.000000  -0.000000   0.019188   0.001791
               7          8
     1  C    0.005143   0.005136
     2  H    0.000000  -0.000000
     3  H    0.000000   0.000000
     4  H    0.000000  -0.000000
     5  C    0.019183   0.019188
     6  H    0.001791   0.001791
     7  H   -0.023741   0.001795
     8  H    0.001795  -0.023739
 Mulliken charges and spin densities:
               1          2
     1  C   -0.953277  -0.790991
     2  H    0.317754  -0.004209
     3  H    0.317747  -0.004202
     4  H    0.317776  -0.004172
     5  C   -0.953277   0.790990
     6  H    0.317774   0.004241
     7  H    0.317780   0.004172
     8  H    0.317723   0.004170
 Sum of Mulliken charges =  -0.00000  -0.00000
 Mulliken charges and spin densities with hydrogens summed into heavy atoms:
               1          2
     1  C    0.000000  -0.803573
     5  C   -0.000000   0.803573
 Electronic spatial extent (au):  <R**2>=            327.4981
 Charge=             -0.0000 electrons
 Dipole moment (field-independent basis, Debye):
    X=              0.0001    Y=             -0.0000    Z=              0.0000  Tot=              0.0001
 Quadrupole moment (field-independent basis, Debye-Ang):
   XX=            -14.7592   YY=            -14.1864   ZZ=            -14.8518
   XY=              0.3511   XZ=              0.1099   YZ=              0.2331
 Traceless Quadrupole moment (field-independent basis, Debye-Ang):
   XX=             -0.1601   YY=              0.4127   ZZ=             -0.2527
   XY=              0.3511   XZ=              0.1099   YZ=              0.2331
 Octapole moment (field-independent basis, Debye-Ang**2):
  XXX=             25.5647  YYY=             51.7673  ZZZ=             17.0891  XYY=              7.3384
  XXY=             17.5464  XXZ=              5.5336  XZZ=              8.4925  YZZ=             17.8860
  YYZ=              4.8719  XYZ=             -0.4030
 Hexadecapole moment (field-independent basis, Debye-Ang**3):
 XXXX=            -89.0732 YYYY=           -303.2094 ZZZZ=            -53.9365 XXXY=            -62.7789
 XXXZ=            -22.5885 YYYX=            -68.4376 YYYZ=            -45.4471 ZZZX=            -19.1809
 ZZZY=            -40.3978 XXYY=            -66.1518 XXZZ=            -26.0645 YYZZ=            -60.8245
 XXYZ=            -15.4498 YYXZ=             -6.3237 ZZXY=            -21.3079
 N-N= 3.326752613902D+01 E-N=-2.502693013443D+02  KE= 7.901415013617D+01
                          Isotropic Fermi Contact Couplings
        Atom                 a.u.       MegaHertz       Gauss      10(-4) cm-1
     1  C(13)             -0.14563     -81.85523     -29.20798     -27.30397
     2  H(1)               0.00648      14.48166       5.16742       4.83056
     3  H(1)               0.00648      14.47821       5.16618       4.82941
     4  H(1)               0.00648      14.49088       5.17071       4.83364
     5  C(13)              0.14563      81.85552      29.20808      27.30406
     6  H(1)              -0.00648     -14.47131      -5.16372      -4.82711
     7  H(1)              -0.00648     -14.49186      -5.17106      -4.83397
     8  H(1)              -0.00648     -14.48750      -5.16950      -4.83251
 --------------------------------------------------------
       Center         ----  Spin Dipole Couplings  ----
                      3XX-RR        3YY-RR        3ZZ-RR
 --------------------------------------------------------
     1   Atom        0.204231     -0.527321      0.323091
     2   Atom        0.043465      0.015315     -0.058781
     3   Atom       -0.042183      0.015317      0.026866
     4   Atom       -0.004413     -0.022454      0.026868
     5   Atom       -0.204229      0.527435     -0.323206
     6   Atom        0.042210     -0.015305     -0.026905
     7   Atom        0.004432      0.022448     -0.026880
     8   Atom       -0.043454     -0.015321      0.058775
 --------------------------------------------------------
                        XY            XZ            YZ
 --------------------------------------------------------
     1   Atom       -0.448245     -0.141363     -0.297796
     2   Atom       -0.017248      0.001729      0.003643
     3   Atom       -0.003318      0.037737     -0.017308
     4   Atom        0.027502     -0.037266      0.018291
     5   Atom        0.448295      0.141278      0.297599
     6   Atom        0.003293     -0.037722      0.017314
     7   Atom       -0.027504      0.037262     -0.018287
     8   Atom        0.017247     -0.001770     -0.003608
 --------------------------------------------------------


 ---------------------------------------------------------------------------------
              Anisotropic Spin Dipole Couplings in Principal Axis System
 ---------------------------------------------------------------------------------

       Atom             a.u.   MegaHertz   Gauss  10(-4) cm-1        Axes

              Baa    -0.8340  -111.915   -39.934   -37.331  0.4124  0.8688  0.2740
     1 C(13)  Bbb     0.4170    55.957    19.967    18.665  0.6151 -0.4874  0.6197
              Bcc     0.4170    55.959    19.967    18.666 -0.6720  0.0870  0.7354
 
              Baa    -0.0590   -31.494   -11.238   -10.505 -0.0261 -0.0550  0.9981
     2 H(1)   Bbb     0.0074     3.935     1.404     1.312  0.4280  0.9017  0.0608
              Bcc     0.0517    27.559     9.834     9.193  0.9034 -0.4288  0.0000
 
              Baa    -0.0590   -31.492   -11.237   -10.505  0.9100 -0.0551 -0.4109
     3 H(1)   Bbb     0.0074     3.938     1.405     1.313  0.2221  0.9017  0.3709
              Bcc     0.0516    27.554     9.832     9.191  0.3501 -0.4288  0.8328
 
              Baa    -0.0590   -31.491   -11.237   -10.504 -0.6180  0.6703 -0.4109
     4 H(1)   Bbb     0.0074     3.937     1.405     1.313  0.5583  0.7421  0.3710
              Bcc     0.0516    27.554     9.832     9.191 -0.5536  0.0001  0.8328
 
              Baa    -0.4170   -55.961   -19.968   -18.666  0.8759 -0.2956 -0.3814
     5 C(13)  Bbb    -0.4170   -55.955   -19.966   -18.664  0.2505 -0.3971  0.8829
              Bcc     0.8340   111.915    39.934    37.331  0.4124  0.8689  0.2738
 
              Baa    -0.0517   -27.559    -9.834    -9.193  0.3498 -0.4285  0.8331
     6 H(1)   Bbb    -0.0074    -3.936    -1.405    -1.313  0.2221  0.9018  0.3707
              Bcc     0.0590    31.496    11.238    10.506  0.9101 -0.0553 -0.4106
 
              Baa    -0.0516   -27.553    -9.832    -9.191 -0.5534  0.0001  0.8329
     7 H(1)   Bbb    -0.0074    -3.938    -1.405    -1.313  0.5583  0.7422  0.3708
              Bcc     0.0590    31.491    11.237    10.504 -0.6181  0.6702 -0.4108
 
              Baa    -0.0516   -27.554    -9.832    -9.191  0.9034 -0.4289  0.0005
     8 H(1)   Bbb    -0.0074    -3.935    -1.404    -1.313  0.4281  0.9017  0.0606
              Bcc     0.0590    31.490    11.236    10.504 -0.0264 -0.0546  0.9982
 

 ---------------------------------------------------------------------------------

 DipInt: DoE/N= T T RetVal/Mat= T F Init=T NMatP=  1 IDeriv=0 Min/MaxMlt=  1  1
 Entering OneElI...
 Multipole integrals L=1 to 1 MinM= 0 MaxM= 0.
 Requested accuracy = 0.1000D-12
 PrsmSu:  NPrtUS=   1 ThrOK=F IAlg=1 NPAlg=1 LenDen=           0.
 Prism:   IPart=     0 DynPar=F LinDyn=F Incr=          34.
 PRISM was handed   419151145 working-precision words and  3402 shell-pairs
 IPart=  0 NShTot=        3402 NBatch=          42 AvBLen=        81.0
 PrSmSu:  NxtVal=             35.
 Entering OneElI...
 Calculate overlap and kinetic energy integrals
    NBasis = 260  MinDer = 1  MaxDer = 1
 Requested accuracy = 0.1000D-12
 PrsmSu:  NPrtUS=  32 ThrOK=T IAlg=1 NPAlg=1 LenDen=           0.
 Prism:   IPart=     0 DynPar=F LinDyn=F Incr=           1.
 PRISM was handed    13041890 working-precision words and  3403 shell-pairs
 PRISM was handed    13041890 working-precision words and  3403 shell-pairs
 PRISM was handed    13041890 working-precision words and  3403 shell-pairs
 PRISM was handed    13041890 working-precision words and  3403 shell-pairs
 PRISM was handed    13041890 working-precision words and  3403 shell-pairs
 PRISM was handed    13041890 working-precision words and  3403 shell-pairs
 PRISM was handed    13041890 working-precision words and  3403 shell-pairs
 PRISM was handed    13041890 working-precision words and  3403 shell-pairs
 PRISM was handed    13041890 working-precision words and  3403 shell-pairs
 PRISM was handed    13041890 working-precision words and  3403 shell-pairs
 PRISM was handed    13041890 working-precision words and  3403 shell-pairs
 PRISM was handed    13041890 working-precision words and  3403 shell-pairs
 PRISM was handed    13041890 working-precision words and  3403 shell-pairs
 PRISM was handed    13041890 working-precision words and  3403 shell-pairs
 PRISM was handed    13041890 working-precision words and  3403 shell-pairs
 PRISM was handed    13041890 working-precision words and  3403 shell-pairs
 PRISM was handed    13041890 working-precision words and  3403 shell-pairs
 PRISM was handed    13041890 working-precision words and  3403 shell-pairs
 PRISM was handed    13041890 working-precision words and  3403 shell-pairs
 PRISM was handed    13041890 working-precision words and  3403 shell-pairs
 PRISM was handed    13041890 working-precision words and  3403 shell-pairs
 PRISM was handed    13041890 working-precision words and  3403 shell-pairs
 PRISM was handed    13041890 working-precision words and  3403 shell-pairs
 PRISM was handed    13041890 working-precision words and  3403 shell-pairs
 PRISM was handed    13041890 working-precision words and  3403 shell-pairs
 PRISM was handed    13041890 working-precision words and  3403 shell-pairs
 PRISM was handed    13041890 working-precision words and  3403 shell-pairs
 PRISM was handed    13041890 working-precision words and  3403 shell-pairs
 PRISM was handed    13041890 working-precision words and  3403 shell-pairs
 PRISM was handed    13041890 working-precision words and  3403 shell-pairs
 PRISM was handed    13041890 working-precision words and  3403 shell-pairs
 PRISM was handed    13041890 working-precision words and  3403 shell-pairs
 IPart=  0 NShTot=         134 NBatch=          41 AvBLen=         3.3
 IPart= 24 NShTot=          96 NBatch=          20 AvBLen=         4.8
 IPart= 17 NShTot=          99 NBatch=          21 AvBLen=         4.7
 IPart=  6 NShTot=         116 NBatch=          27 AvBLen=         4.3
 IPart= 25 NShTot=          96 NBatch=          20 AvBLen=         4.8
 IPart= 23 NShTot=          97 NBatch=          21 AvBLen=         4.6
 IPart= 14 NShTot=         105 NBatch=          21 AvBLen=         5.0
 IPart= 21 NShTot=          98 NBatch=          21 AvBLen=         4.7
 IPart= 18 NShTot=          99 NBatch=          21 AvBLen=         4.7
 IPart= 27 NShTot=          95 NBatch=          20 AvBLen=         4.8
 IPart= 31 NShTot=          95 NBatch=          20 AvBLen=         4.8
 IPart=  8 NShTot=         111 NBatch=          23 AvBLen=         4.8
 IPart= 19 NShTot=          98 NBatch=          21 AvBLen=         4.7
 IPart= 16 NShTot=          99 NBatch=          21 AvBLen=         4.7
 IPart=  7 NShTot=         116 NBatch=          27 AvBLen=         4.3
 IPart= 10 NShTot=         110 NBatch=          22 AvBLen=         5.0
 IPart= 12 NShTot=         107 NBatch=          22 AvBLen=         4.9
 IPart=  4 NShTot=         122 NBatch=          32 AvBLen=         3.8
 IPart=  2 NShTot=         125 NBatch=          32 AvBLen=         3.9
 IPart= 26 NShTot=          95 NBatch=          20 AvBLen=         4.8
 IPart= 15 NShTot=         105 NBatch=          21 AvBLen=         5.0
 IPart= 29 NShTot=          95 NBatch=          20 AvBLen=         4.8
 IPart= 28 NShTot=          95 NBatch=          20 AvBLen=         4.8
 IPart= 13 NShTot=         106 NBatch=          22 AvBLen=         4.8
 IPart= 11 NShTot=         109 NBatch=          22 AvBLen=         5.0
 IPart=  3 NShTot=         125 NBatch=          32 AvBLen=         3.9
 IPart= 20 NShTot=          98 NBatch=          21 AvBLen=         4.7
 IPart=  9 NShTot=         111 NBatch=          23 AvBLen=         4.8
 IPart=  5 NShTot=         122 NBatch=          32 AvBLen=         3.8
 IPart= 30 NShTot=          95 NBatch=          20 AvBLen=         4.8
 IPart= 22 NShTot=          97 NBatch=          21 AvBLen=         4.6
 IPart=  1 NShTot=         132 NBatch=          39 AvBLen=         3.4
 PrSmSu:  NxtVal=             33.
 Entering OneElI...
 Calculate potential energy integrals
    NBasis = 260  MinDer = 1  MaxDer = 1
 Requested accuracy = 0.1000D-12
 PrsmSu:  NPrtUS=  32 ThrOK=T IAlg=1 NPAlg=1 LenDen=           0.
 Prism:   IPart=     0 DynPar=F LinDyn=F Incr=           8.
 PRISM was handed    13048186 working-precision words and  3333 shell-pairs
 PRISM was handed    13048186 working-precision words and  3333 shell-pairs
 PRISM was handed    13048186 working-precision words and  3333 shell-pairs
 PRISM was handed    13048186 working-precision words and  3333 shell-pairs
 PRISM was handed    13048186 working-precision words and  3333 shell-pairs
 PRISM was handed    13048186 working-precision words and  3333 shell-pairs
 PRISM was handed    13048186 working-precision words and  3333 shell-pairs
 PRISM was handed    13048186 working-precision words and  3333 shell-pairs
 PRISM was handed    13048186 working-precision words and  3333 shell-pairs
 PRISM was handed    13048186 working-precision words and  3333 shell-pairs
 PRISM was handed    13048186 working-precision words and  3333 shell-pairs
 PRISM was handed    13048186 working-precision words and  3333 shell-pairs
 PRISM was handed    13048186 working-precision words and  3333 shell-pairs
 PRISM was handed    13048186 working-precision words and  3333 shell-pairs
 PRISM was handed    13048186 working-precision words and  3333 shell-pairs
 PRISM was handed    13048186 working-precision words and  3333 shell-pairs
 PRISM was handed    13048186 working-precision words and  3333 shell-pairs
 PRISM was handed    13048186 working-precision words and  3333 shell-pairs
 PRISM was handed    13048186 working-precision words and  3333 shell-pairs
 PRISM was handed    13048186 working-precision words and  3333 shell-pairs
 PRISM was handed    13048186 working-precision words and  3333 shell-pairs
 PRISM was handed    13048186 working-precision words and  3333 shell-pairs
 PRISM was handed    13048186 working-precision words and  3333 shell-pairs
 PRISM was handed    13048186 working-precision words and  3333 shell-pairs
 PRISM was handed    13048186 working-precision words and  3333 shell-pairs
 PRISM was handed    13048186 working-precision words and  3333 shell-pairs
 PRISM was handed    13048186 working-precision words and  3333 shell-pairs
 PRISM was handed    13048186 working-precision words and  3333 shell-pairs
 PRISM was handed    13048186 working-precision words and  3333 shell-pairs
 PRISM was handed    13048186 working-precision words and  3333 shell-pairs
 PRISM was handed    13048186 working-precision words and  3333 shell-pairs
 PRISM was handed    13048186 working-precision words and  3333 shell-pairs
 IPart= 22 NShTot=         768 NBatch=          96 AvBLen=         8.0
 IPart= 31 NShTot=         736 NBatch=          92 AvBLen=         8.0
 IPart= 30 NShTot=         736 NBatch=          92 AvBLen=         8.0
 IPart= 24 NShTot=         760 NBatch=          95 AvBLen=         8.0
 IPart= 11 NShTot=         824 NBatch=         103 AvBLen=         8.0
 IPart=  9 NShTot=         864 NBatch=         108 AvBLen=         8.0
 IPart= 17 NShTot=         792 NBatch=          99 AvBLen=         8.0
 IPart= 15 NShTot=         808 NBatch=         101 AvBLen=         8.0
 IPart= 13 NShTot=         816 NBatch=         102 AvBLen=         8.0
 IPart=  5 NShTot=         960 NBatch=         120 AvBLen=         8.0
 IPart=  1 NShTot=        1048 NBatch=         131 AvBLen=         8.0
 IPart= 28 NShTot=         744 NBatch=          93 AvBLen=         8.0
 IPart= 20 NShTot=         776 NBatch=          97 AvBLen=         8.0
 IPart= 26 NShTot=         760 NBatch=          95 AvBLen=         8.0
 IPart= 12 NShTot=         816 NBatch=         102 AvBLen=         8.0
 IPart= 29 NShTot=         744 NBatch=          93 AvBLen=         8.0
 IPart=  3 NShTot=         968 NBatch=         121 AvBLen=         8.0
 IPart= 16 NShTot=         792 NBatch=          99 AvBLen=         8.0
 IPart=  8 NShTot=         872 NBatch=         109 AvBLen=         8.0
 IPart=  7 NShTot=         920 NBatch=         115 AvBLen=         8.0
 IPart= 19 NShTot=         776 NBatch=          97 AvBLen=         8.0
 IPart= 21 NShTot=         776 NBatch=          97 AvBLen=         8.0
 IPart= 18 NShTot=         776 NBatch=          97 AvBLen=         8.0
 IPart= 25 NShTot=         760 NBatch=          95 AvBLen=         8.0
 IPart= 27 NShTot=         760 NBatch=          95 AvBLen=         8.0
 IPart= 23 NShTot=         768 NBatch=          96 AvBLen=         8.0
 IPart= 14 NShTot=         808 NBatch=         101 AvBLen=         8.0
 IPart= 10 NShTot=         824 NBatch=         103 AvBLen=         8.0
 IPart=  2 NShTot=         968 NBatch=         121 AvBLen=         8.0
 IPart=  4 NShTot=         960 NBatch=         120 AvBLen=         8.0
 IPart=  6 NShTot=         920 NBatch=         115 AvBLen=         8.0
 IPart=  0 NShTot=        1064 NBatch=         133 AvBLen=         8.0
 PrSmSu:  NxtVal=            257.
 l701 out
 I=    0 X=   2.720478493945D-05 Y=  -1.389851103806D-05 Z=   4.184315770317D-06
 I=    1 X=  -6.860888620474D-02 Y=  -1.449286916862D-01 Z=  -4.486336439527D-02
 I=    2 X=   9.429668559370D-02 Y=   1.988745694362D-01 Z=   2.944848432774D+00
 I=    3 X=   2.751074855214D+00 Y=   1.988503067694D-01 Z=  -1.054358731568D+00
 I=    4 X=  -1.585317896829D+00 Y=   2.256958027092D+00 Z=  -1.054354366079D+00
 I=    5 X=   6.758428946857D-02 Y=   1.450963224044D-01 Z=   4.588842972844D-02
 I=    6 X=  -2.751628356055D+00 Y=  -1.982231595510D-01 Z=   1.053515534174D+00
 I=    7 X=   1.585790462955D+00 Y=  -2.256732315318D+00 Z=   1.054007360522D+00
 I=    8 X=  -9.319115414356D-02 Y=  -1.998950591471D-01 Z=  -2.944683295157D+00
 ICntrl=      2127.
 Calling FoFJK, ICntrl=      2127 FMM=F ISym2X=0 I1Cent= 0 IOpClX= 1 NMat=1 NMatS=1 NMatT=0.
 FoFJK:  IHMeth= 1 ICntrl=    2127 DoSepK=T KAlg= 0 I1Cent=   0 FoldK=F
 IRaf=         1 NMat=   1 IRICut=       1 DoRegI=T DoRafI=F ISym2E= 0.
 FoFCou: FMM=F IPFlag=           0 FMFlag=      100000 FMFlg1=         800
         NFxFlg=           0 DoJE=F BraDBF=F KetDBF=F FulRan=T
         wScrn=  0.000000 ICntrl=    2527 IOpCl=  0 I1Cent=           0 NGrid=           0
         NMat0=    1 NMatS0=      1 NMatT0=    0 NMatD0=    1 NMtDS0=    0 NMtDT0=    0
 Symmetry not used in FoFCou.
 FoFCou:  KetSym=F NOpSet=  1 NOpAb=1 NOp=  1.
 FoFCou:  CnvScl= 1.00D+00 Thresh= 1.00D-10 IAcrcy=      10.
 PrismS was handed   419081246 working-precision words and  3387 shell-pairs
 FoFCou: LinMIO=F DoNuc=F BraDBF=F KetDBF=F HaveP=T PDBF=F HaveZ=T HaveW=F
         NIJTC =      10 NIJTAt=       0 NIJTCD=       0 NIJTT =      10
         IJTBeg=       1 IJTEnd=      10 KLTBeg=       1 KLTEnd=      10
         IPTBeg=       1 IPTEnd=      10 IPTBCv=       1 IPTECv=      10
         IZTBeg=       1 IZTEnd=      10 IZTBCv=       1 IZTECv=      10
         IWTBeg=      11 IWTEnd=      10 IWTBCv=      11 IWTECv=      10
         INTBeg=       1 INTEnd=       0 IFTBCv=       1 IFTECv=      10
 NCel replicated for PrismC:     1
 CoulSu:  IncDef=  1024 NBBP=        5737578 NTPThr=   100 NPartT=   32 Incr=        1024 LDynOK=F.
 CoulSu:  NPrtUS=  32 ThrOK=T IAlg=1 NPAlg=1 LenDen=           0 LWGrdD=           0 DoCopy=F.
 Enter PrismC: JobTyp=21 DoJE=F Cont=F.
 PrismC:  IPart=     0 DynPar=T LinDyn=F Incr=        1024 UseFst=F UseS4=T IGathr=2.
 PrismC was handed    13045019 working-precision words and  3387 shell-pairs
 Enter PrismC: JobTyp=21 DoJE=F Cont=F.
 Enter PrismC: JobTyp=21 DoJE=F Cont=F.
 Enter PrismC: JobTyp=21 DoJE=F Cont=F.
 Enter PrismC: JobTyp=21 DoJE=F Cont=F.
 Enter PrismC: JobTyp=21 DoJE=F Cont=F.
 Enter PrismC: JobTyp=21 DoJE=F Cont=F.
 Enter PrismC: JobTyp=21 DoJE=F Cont=F.
 Enter PrismC: JobTyp=21 DoJE=F Cont=F.
 Enter PrismC: JobTyp=21 DoJE=F Cont=F.
 Enter PrismC: JobTyp=21 DoJE=F Cont=F.
 Enter PrismC: JobTyp=21 DoJE=F Cont=F.
 Enter PrismC: JobTyp=21 DoJE=F Cont=F.
 Enter PrismC: JobTyp=21 DoJE=F Cont=F.
 Enter PrismC: JobTyp=21 DoJE=F Cont=F.
 Enter PrismC: JobTyp=21 DoJE=F Cont=F.
 Enter PrismC: JobTyp=21 DoJE=F Cont=F.
 Enter PrismC: JobTyp=21 DoJE=F Cont=F.
 Enter PrismC: JobTyp=21 DoJE=F Cont=F.
 Enter PrismC: JobTyp=21 DoJE=F Cont=F.
 Enter PrismC: JobTyp=21 DoJE=F Cont=F.
 Enter PrismC: JobTyp=21 DoJE=F Cont=F.
 PrismC was handed    13045019 working-precision words and  3387 shell-pairs
 Enter PrismC: JobTyp=21 DoJE=F Cont=F.
 PrismC was handed    13045019 working-precision words and  3387 shell-pairs
 Enter PrismC: JobTyp=21 DoJE=F Cont=F.
 PrismC was handed    13045019 working-precision words and  3387 shell-pairs
 Enter PrismC: JobTyp=21 DoJE=F Cont=F.
 PrismC was handed    13045019 working-precision words and  3387 shell-pairs
 Enter PrismC: JobTyp=21 DoJE=F Cont=F.
 PrismC was handed    13045019 working-precision words and  3387 shell-pairs
 Enter PrismC: JobTyp=21 DoJE=F Cont=F.
 PrismC was handed    13045019 working-precision words and  3387 shell-pairs
 Enter PrismC: JobTyp=21 DoJE=F Cont=F.
 PrismC was handed    13045019 working-precision words and  3387 shell-pairs
 Enter PrismC: JobTyp=21 DoJE=F Cont=F.
 PrismC was handed    13045019 working-precision words and  3387 shell-pairs
 Enter PrismC: JobTyp=21 DoJE=F Cont=F.
 PrismC was handed    13045019 working-precision words and  3387 shell-pairs
 Enter PrismC: JobTyp=21 DoJE=F Cont=F.
 PrismC was handed    13045019 working-precision words and  3387 shell-pairs
 Enter PrismC: JobTyp=21 DoJE=F Cont=F.
 PrismC was handed    13045019 working-precision words and  3387 shell-pairs
 PrismC was handed    13045019 working-precision words and  3387 shell-pairs
 PrismC was handed    13045019 working-precision words and  3387 shell-pairs
 PrismC was handed    13045019 working-precision words and  3387 shell-pairs
 PrismC was handed    13045019 working-precision words and  3387 shell-pairs
 PrismC was handed    13045019 working-precision words and  3387 shell-pairs
 PrismC was handed    13045019 working-precision words and  3387 shell-pairs
 PrismC was handed    13045019 working-precision words and  3387 shell-pairs
 PrismC was handed    13045019 working-precision words and  3387 shell-pairs
 PrismC was handed    13045019 working-precision words and  3387 shell-pairs
 PrismC was handed    13045019 working-precision words and  3387 shell-pairs
 PrismC was handed    13045019 working-precision words and  3387 shell-pairs
 PrismC was handed    13045019 working-precision words and  3387 shell-pairs
 PrismC was handed    13045019 working-precision words and  3387 shell-pairs
 PrismC was handed    13045019 working-precision words and  3387 shell-pairs
 PrismC was handed    13045019 working-precision words and  3387 shell-pairs
 PrismC was handed    13045019 working-precision words and  3387 shell-pairs
 PrismC was handed    13045019 working-precision words and  3387 shell-pairs
 PrismC was handed    13045019 working-precision words and  3387 shell-pairs
 PrismC was handed    13045019 working-precision words and  3387 shell-pairs
 PrismC was handed    13045019 working-precision words and  3387 shell-pairs
 IPart= 14 NShTot=      151692 NShNF=      151692 NShFF=           0 NBatch=        1450 AvBLen=       104.6
 IPart= 20 NShTot=      175823 NShNF=      175823 NShFF=           0 NBatch=        1432 AvBLen=       122.8
 IPart= 23 NShTot=      152783 NShNF=      152783 NShFF=           0 NBatch=        1452 AvBLen=       105.2
 IPart= 27 NShTot=      165613 NShNF=      165613 NShFF=           0 NBatch=        1405 AvBLen=       117.9
 IPart=  3 NShTot=      166343 NShNF=      166343 NShFF=           0 NBatch=        1402 AvBLen=       118.6
 IPart= 25 NShTot=      155112 NShNF=      155112 NShFF=           0 NBatch=        1446 AvBLen=       107.3
 IPart= 31 NShTot=      149761 NShNF=      149761 NShFF=           0 NBatch=        1295 AvBLen=       115.6
 IPart= 15 NShTot=      154551 NShNF=      154551 NShFF=           0 NBatch=        1366 AvBLen=       113.1
 IPart=  2 NShTot=      163377 NShNF=      163377 NShFF=           0 NBatch=        1405 AvBLen=       116.3
 IPart= 17 NShTot=      162720 NShNF=      162720 NShFF=           0 NBatch=        1464 AvBLen=       111.1
 IPart=  5 NShTot=      151813 NShNF=      151813 NShFF=           0 NBatch=        1232 AvBLen=       123.2
 IPart= 18 NShTot=      158524 NShNF=      158524 NShFF=           0 NBatch=        1212 AvBLen=       130.8
 IPart= 22 NShTot=      166616 NShNF=      166616 NShFF=           0 NBatch=        1495 AvBLen=       111.4
 IPart= 24 NShTot=      169345 NShNF=      169345 NShFF=           0 NBatch=        1490 AvBLen=       113.7
 IPart= 29 NShTot=      162263 NShNF=      162263 NShFF=           0 NBatch=        1395 AvBLen=       116.3
 IPart=  7 NShTot=      161979 NShNF=      161979 NShFF=           0 NBatch=        1407 AvBLen=       115.1
 IPart= 19 NShTot=      155258 NShNF=      155258 NShFF=           0 NBatch=        1374 AvBLen=       113.0
 IPart= 30 NShTot=      157436 NShNF=      157436 NShFF=           0 NBatch=        1405 AvBLen=       112.1
 IPart= 21 NShTot=      159814 NShNF=      159814 NShFF=           0 NBatch=        1417 AvBLen=       112.8
 IPart= 16 NShTot=      170081 NShNF=      170081 NShFF=           0 NBatch=        1396 AvBLen=       121.8
 IPart= 11 NShTot=      146150 NShNF=      146150 NShFF=           0 NBatch=        1356 AvBLen=       107.8
 IPart=  9 NShTot=      154038 NShNF=      154038 NShFF=           0 NBatch=        1184 AvBLen=       130.1
 IPart= 13 NShTot=      163449 NShNF=      163449 NShFF=           0 NBatch=        1443 AvBLen=       113.3
 IPart= 26 NShTot=      153897 NShNF=      153897 NShFF=           0 NBatch=        1445 AvBLen=       106.5
 IPart=  0 NShTot=      152150 NShNF=      152150 NShFF=           0 NBatch=        1045 AvBLen=       145.6
 IPart= 12 NShTot=      166628 NShNF=      166628 NShFF=           0 NBatch=        1415 AvBLen=       117.8
 IPart=  1 NShTot=      166585 NShNF=      166585 NShFF=           0 NBatch=        1321 AvBLen=       126.1
 IPart= 28 NShTot=      158169 NShNF=      158169 NShFF=           0 NBatch=        1353 AvBLen=       116.9
 IPart=  4 NShTot=      158374 NShNF=      158374 NShFF=           0 NBatch=        1433 AvBLen=       110.5
 IPart=  8 NShTot=      162172 NShNF=      162172 NShFF=           0 NBatch=        1433 AvBLen=       113.2
 IPart=  6 NShTot=      167622 NShNF=      167622 NShFF=           0 NBatch=        1438 AvBLen=       116.6
 IPart= 10 NShTot=      148980 NShNF=      148980 NShFF=           0 NBatch=        1409 AvBLen=       105.7
 CoulSu:  NxtVal=        6306817.
 FoFCou: FMM=F IPFlag=           0 FMFlag=      100000 FMFlg1=         800
         NFxFlg=           0 DoJE=F BraDBF=F KetDBF=F FulRan=T
         wScrn=  0.000000 ICntrl=    2127 IOpCl=  1 I1Cent=           0 NGrid=           0
         NMat0=    1 NMatS0=      0 NMatT0=    1 NMatD0=    1 NMtDS0=    0 NMtDT0=    0
         CW=    0.222036    0.777964
         WU=    0.000000   12.500000
 Symmetry not used in FoFCou.
 FoFCou:  KetSym=F NOpSet=  1 NOpAb=1 NOp=  1.
 FoFCou:  CnvScl= 1.00D+00 Thresh= 1.00D-10 IAcrcy=      10.
 PrismS was handed   419077899 working-precision words and  3387 shell-pairs
 FoFCou: LinMIO=F DoNuc=F BraDBF=F KetDBF=F HaveP=T PDBF=F HaveZ=T HaveW=F
         NIJTC =      10 NIJTAt=       0 NIJTCD=       0 NIJTT =      10
         IJTBeg=       1 IJTEnd=      10 KLTBeg=       1 KLTEnd=      10
         IPTBeg=       1 IPTEnd=      10 IPTBCv=       1 IPTECv=      10
         IZTBeg=       1 IZTEnd=      10 IZTBCv=       1 IZTECv=      10
         IWTBeg=      11 IWTEnd=      10 IWTBCv=      11 IWTECv=      10
         INTBeg=       1 INTEnd=       0 IFTBCv=       1 IFTECv=      10
 NCel replicated for PrismC:     1
 CoulSu:  IncDef=  1024 NBBP=        5737578 NTPThr=   100 NPartT=   32 Incr=        1024 LDynOK=F.
 CoulSu:  NPrtUS=  32 ThrOK=T IAlg=1 NPAlg=1 LenDen=           0 LWGrdD=           0 DoCopy=F.
 Enter PrismC: JobTyp=21 DoJE=F Cont=F.
 Linear combination for Coulomb/exchange, wScrn=  0.000000
 CW=    0.222036    0.777964
 WU=    0.000000   12.500000
 PrismC:  IPart=     0 DynPar=T LinDyn=F Incr=        1024 UseFst=F UseS4=T IGathr=2.
 PrismC was handed    13044914 working-precision words and  3387 shell-pairs
 Enter PrismC: JobTyp=21 DoJE=F Cont=F.
 Enter PrismC: JobTyp=21 DoJE=F Cont=F.
 Enter PrismC: JobTyp=21 DoJE=F Cont=F.
 Enter PrismC: JobTyp=21 DoJE=F Cont=F.
 Linear combination for Coulomb/exchange, wScrn=  0.000000
 CW=    0.222036    0.777964
 WU=    0.000000   12.500000
 Enter PrismC: JobTyp=21 DoJE=F Cont=F.
 Linear combination for Coulomb/exchange, wScrn=  0.000000
 CW=    0.222036    0.777964
 WU=    0.000000   12.500000
 Enter PrismC: JobTyp=21 DoJE=F Cont=F.
 Linear combination for Coulomb/exchange, wScrn=  0.000000
 CW=    0.222036    0.777964
 WU=    0.000000   12.500000
 Enter PrismC: JobTyp=21 DoJE=F Cont=F.
 Linear combination for Coulomb/exchange, wScrn=  0.000000
 CW=    0.222036    0.777964
 WU=    0.000000   12.500000
 Enter PrismC: JobTyp=21 DoJE=F Cont=F.
 Linear combination for Coulomb/exchange, wScrn=  0.000000
 CW=    0.222036    0.777964
 WU=    0.000000   12.500000
 Enter PrismC: JobTyp=21 DoJE=F Cont=F.
 Linear combination for Coulomb/exchange, wScrn=  0.000000
 CW=    0.222036    0.777964
 WU=    0.000000   12.500000
 PrismC was handed    13044914 working-precision words and  3387 shell-pairs
 Enter PrismC: JobTyp=21 DoJE=F Cont=F.
 Linear combination for Coulomb/exchange, wScrn=  0.000000
 CW=    0.222036    0.777964
 WU=    0.000000   12.500000
 PrismC was handed    13044914 working-precision words and  3387 shell-pairs
 Linear combination for Coulomb/exchange, wScrn=  0.000000
 CW=    0.222036    0.777964
 WU=    0.000000   12.500000
 Enter PrismC: JobTyp=21 DoJE=F Cont=F.
 Linear combination for Coulomb/exchange, wScrn=  0.000000
 CW=    0.222036    0.777964
 WU=    0.000000   12.500000
 Enter PrismC: JobTyp=21 DoJE=F Cont=F.
 Linear combination for Coulomb/exchange, wScrn=  0.000000
 CW=    0.222036    0.777964
 WU=    0.000000   12.500000
 Enter PrismC: JobTyp=21 DoJE=F Cont=F.
 Linear combination for Coulomb/exchange, wScrn=  0.000000
 CW=    0.222036    0.777964
 WU=    0.000000   12.500000
 Enter PrismC: JobTyp=21 DoJE=F Cont=F.
 Linear combination for Coulomb/exchange, wScrn=  0.000000
 CW=    0.222036    0.777964
 WU=    0.000000   12.500000
 Enter PrismC: JobTyp=21 DoJE=F Cont=F.
 Linear combination for Coulomb/exchange, wScrn=  0.000000
 CW=    0.222036    0.777964
 WU=    0.000000   12.500000
 Enter PrismC: JobTyp=21 DoJE=F Cont=F.
 Linear combination for Coulomb/exchange, wScrn=  0.000000
 CW=    0.222036    0.777964
 WU=    0.000000   12.500000
 Enter PrismC: JobTyp=21 DoJE=F Cont=F.
 Linear combination for Coulomb/exchange, wScrn=  0.000000
 CW=    0.222036    0.777964
 WU=    0.000000   12.500000
 PrismC was handed    13044914 working-precision words and  3387 shell-pairs
 PrismC was handed    13044914 working-precision words and  3387 shell-pairs
 Enter PrismC: JobTyp=21 DoJE=F Cont=F.
 Linear combination for Coulomb/exchange, wScrn=  0.000000
 CW=    0.222036    0.777964
 WU=    0.000000   12.500000
 Enter PrismC: JobTyp=21 DoJE=F Cont=F.
 Linear combination for Coulomb/exchange, wScrn=  0.000000
 CW=    0.222036    0.777964
 WU=    0.000000   12.500000
 Enter PrismC: JobTyp=21 DoJE=F Cont=F.
 Linear combination for Coulomb/exchange, wScrn=  0.000000
 CW=    0.222036    0.777964
 WU=    0.000000   12.500000
 Linear combination for Coulomb/exchange, wScrn=  0.000000
 CW=    0.222036    0.777964
 WU=    0.000000   12.500000
 PrismC was handed    13044914 working-precision words and  3387 shell-pairs
 Enter PrismC: JobTyp=21 DoJE=F Cont=F.
 Linear combination for Coulomb/exchange, wScrn=  0.000000
 CW=    0.222036    0.777964
 WU=    0.000000   12.500000
 Enter PrismC: JobTyp=21 DoJE=F Cont=F.
 Linear combination for Coulomb/exchange, wScrn=  0.000000
 CW=    0.222036    0.777964
 WU=    0.000000   12.500000
 Enter PrismC: JobTyp=21 DoJE=F Cont=F.
 Linear combination for Coulomb/exchange, wScrn=  0.000000
 CW=    0.222036    0.777964
 WU=    0.000000   12.500000
 PrismC was handed    13044914 working-precision words and  3387 shell-pairs
 PrismC was handed    13044914 working-precision words and  3387 shell-pairs
 PrismC was handed    13044914 working-precision words and  3387 shell-pairs
 Enter PrismC: JobTyp=21 DoJE=F Cont=F.
 Linear combination for Coulomb/exchange, wScrn=  0.000000
 CW=    0.222036    0.777964
 WU=    0.000000   12.500000
 Enter PrismC: JobTyp=21 DoJE=F Cont=F.
 Linear combination for Coulomb/exchange, wScrn=  0.000000
 CW=    0.222036    0.777964
 WU=    0.000000   12.500000
 Enter PrismC: JobTyp=21 DoJE=F Cont=F.
 Linear combination for Coulomb/exchange, wScrn=  0.000000
 CW=    0.222036    0.777964
 WU=    0.000000   12.500000
 PrismC was handed    13044914 working-precision words and  3387 shell-pairs
 Enter PrismC: JobTyp=21 DoJE=F Cont=F.
 Linear combination for Coulomb/exchange, wScrn=  0.000000
 CW=    0.222036    0.777964
 WU=    0.000000   12.500000
 Linear combination for Coulomb/exchange, wScrn=  0.000000
 CW=    0.222036    0.777964
 WU=    0.000000   12.500000
 PrismC was handed    13044914 working-precision words and  3387 shell-pairs
 Enter PrismC: JobTyp=21 DoJE=F Cont=F.
 Linear combination for Coulomb/exchange, wScrn=  0.000000
 CW=    0.222036    0.777964
 WU=    0.000000   12.500000
 PrismC was handed    13044914 working-precision words and  3387 shell-pairs
 PrismC was handed    13044914 working-precision words and  3387 shell-pairs
 PrismC was handed    13044914 working-precision words and  3387 shell-pairs
 PrismC was handed    13044914 working-precision words and  3387 shell-pairs
 PrismC was handed    13044914 working-precision words and  3387 shell-pairs
 PrismC was handed    13044914 working-precision words and  3387 shell-pairs
 PrismC was handed    13044914 working-precision words and  3387 shell-pairs
 PrismC was handed    13044914 working-precision words and  3387 shell-pairs
 Enter PrismC: JobTyp=21 DoJE=F Cont=F.
 Linear combination for Coulomb/exchange, wScrn=  0.000000
 CW=    0.222036    0.777964
 WU=    0.000000   12.500000
 PrismC was handed    13044914 working-precision words and  3387 shell-pairs
 PrismC was handed    13044914 working-precision words and  3387 shell-pairs
 PrismC was handed    13044914 working-precision words and  3387 shell-pairs
 Enter PrismC: JobTyp=21 DoJE=F Cont=F.
 Linear combination for Coulomb/exchange, wScrn=  0.000000
 CW=    0.222036    0.777964
 WU=    0.000000   12.500000
 PrismC was handed    13044914 working-precision words and  3387 shell-pairs
 PrismC was handed    13044914 working-precision words and  3387 shell-pairs
 PrismC was handed    13044914 working-precision words and  3387 shell-pairs
 PrismC was handed    13044914 working-precision words and  3387 shell-pairs
 Enter PrismC: JobTyp=21 DoJE=F Cont=F.
 Linear combination for Coulomb/exchange, wScrn=  0.000000
 CW=    0.222036    0.777964
 WU=    0.000000   12.500000
 PrismC was handed    13044914 working-precision words and  3387 shell-pairs
 PrismC was handed    13044914 working-precision words and  3387 shell-pairs
 PrismC was handed    13044914 working-precision words and  3387 shell-pairs
 PrismC was handed    13044914 working-precision words and  3387 shell-pairs
 PrismC was handed    13044914 working-precision words and  3387 shell-pairs
 PrismC was handed    13044914 working-precision words and  3387 shell-pairs
 IPart= 30 NShTot=      151476 NShNF=      151476 NShFF=           0 NBatch=        1701 AvBLen=        89.1
 IPart= 21 NShTot=      160480 NShNF=      160480 NShFF=           0 NBatch=        1655 AvBLen=        97.0
 IPart=  4 NShTot=      150599 NShNF=      150599 NShFF=           0 NBatch=        1725 AvBLen=        87.3
 IPart= 16 NShTot=      164492 NShNF=      164492 NShFF=           0 NBatch=        1580 AvBLen=       104.1
 IPart= 26 NShTot=      150820 NShNF=      150820 NShFF=           0 NBatch=        1723 AvBLen=        87.5
 IPart= 24 NShTot=      160258 NShNF=      160258 NShFF=           0 NBatch=        1731 AvBLen=        92.6
 IPart= 31 NShTot=      162603 NShNF=      162603 NShFF=           0 NBatch=        1717 AvBLen=        94.7
 IPart= 25 NShTot=      167710 NShNF=      167710 NShFF=           0 NBatch=        1756 AvBLen=        95.5
 IPart= 10 NShTot=      166600 NShNF=      166600 NShFF=           0 NBatch=        1736 AvBLen=        96.0
 IPart= 12 NShTot=      146640 NShNF=      146640 NShFF=           0 NBatch=        1675 AvBLen=        87.5
 IPart= 28 NShTot=      179135 NShNF=      179135 NShFF=           0 NBatch=        1684 AvBLen=       106.4
 IPart= 22 NShTot=      165601 NShNF=      165601 NShFF=           0 NBatch=        1779 AvBLen=        93.1
 IPart=  3 NShTot=      156245 NShNF=      156245 NShFF=           0 NBatch=        1695 AvBLen=        92.2
 IPart=  1 NShTot=      164449 NShNF=      164449 NShFF=           0 NBatch=        1727 AvBLen=        95.2
 IPart=  0 NShTot=      145813 NShNF=      145813 NShFF=           0 NBatch=        1375 AvBLen=       106.0
 IPart= 20 NShTot=      168658 NShNF=      168658 NShFF=           0 NBatch=        1773 AvBLen=        95.1
 IPart= 17 NShTot=      164180 NShNF=      164180 NShFF=           0 NBatch=        1809 AvBLen=        90.8
 IPart=  7 NShTot=      148878 NShNF=      148878 NShFF=           0 NBatch=        1715 AvBLen=        86.8
 IPart= 11 NShTot=      156312 NShNF=      156312 NShFF=           0 NBatch=        1741 AvBLen=        89.8
 IPart=  6 NShTot=      168961 NShNF=      168961 NShFF=           0 NBatch=        1571 AvBLen=       107.5
 IPart= 27 NShTot=      151375 NShNF=      151375 NShFF=           0 NBatch=        1718 AvBLen=        88.1
 IPart= 19 NShTot=      162433 NShNF=      162433 NShFF=           0 NBatch=        1727 AvBLen=        94.1
 IPart=  5 NShTot=      155191 NShNF=      155191 NShFF=           0 NBatch=        1734 AvBLen=        89.5
 IPart=  2 NShTot=      169469 NShNF=      169469 NShFF=           0 NBatch=        1720 AvBLen=        98.5
 IPart= 23 NShTot=      170918 NShNF=      170918 NShFF=           0 NBatch=        1633 AvBLen=       104.7
 IPart= 18 NShTot=      156243 NShNF=      156243 NShFF=           0 NBatch=        1799 AvBLen=        86.8
 IPart=  8 NShTot=      159878 NShNF=      159878 NShFF=           0 NBatch=        1795 AvBLen=        89.1
 IPart= 13 NShTot=      163810 NShNF=      163810 NShFF=           0 NBatch=        1709 AvBLen=        95.9
 IPart= 14 NShTot=      155409 NShNF=      155409 NShFF=           0 NBatch=        1741 AvBLen=        89.3
 IPart= 15 NShTot=      156040 NShNF=      156040 NShFF=           0 NBatch=        1718 AvBLen=        90.8
 IPart=  9 NShTot=      164467 NShNF=      164467 NShFF=           0 NBatch=        1774 AvBLen=        92.7
 IPart= 29 NShTot=      175373 NShNF=      175373 NShFF=           0 NBatch=        1788 AvBLen=        98.1
 CoulSu:  NxtVal=        6306817.
 ReadGW:  IGet=0 IStart=           1 Next=           1 LGW=           0.
 Remaining memory in FofDFT      399.87 Mw
 CkSvGd:  ISavGI=        -1 IRadAn=       5 IRASav=       5 ISavGd=        -1.
 CalDSu:  NPrtUS=  32 ThrOK=T IAlg=1 NPAlg=2 DoDPD=T LenP=       33930 LenD1P=             0.
 IPart=  0 IRanGd=          0 ScrnBf=T ScrnGd=T RCrit=4.00D+00 DoMicB=T.
 IPart=  3         6201 of         7228 points in       9 batches and       28 microbatches, Max-NSigAt=       8 Max-NSgAt2=       8
 IPart= 26         5820 of         6504 points in       8 batches and       15 microbatches, Max-NSigAt=       8 Max-NSgAt2=       8
 IPart= 11         5232 of         5984 points in       7 batches and       33 microbatches, Max-NSigAt=       8 Max-NSgAt2=       8
 IPart= 28         5766 of         6724 points in       8 batches and       40 microbatches, Max-NSigAt=       8 Max-NSgAt2=       8
 IPart= 18         4604 of         4748 points in       4 batches and       14 microbatches, Max-NSigAt=       8 Max-NSgAt2=       8
 IPart=  7         6290 of         7602 points in      10 batches and       52 microbatches, Max-NSigAt=       8 Max-NSgAt2=       8
 IPart= 17         5657 of         6226 points in       7 batches and       25 microbatches, Max-NSigAt=       8 Max-NSgAt2=       8
 IPart= 12         4991 of         5460 points in       6 batches and       36 microbatches, Max-NSigAt=       8 Max-NSgAt2=       8
 IPart= 27         4979 of         5552 points in       6 batches and       29 microbatches, Max-NSigAt=       8 Max-NSgAt2=       8
 IPart= 29         4306 of         4748 points in       5 batches and       36 microbatches, Max-NSigAt=       8 Max-NSgAt2=       8
 IPart=  0         4541 of         4772 points in       5 batches and       26 microbatches, Max-NSigAt=       8 Max-NSgAt2=       8
 IPart=  6         4635 of         4920 points in       5 batches and       27 microbatches, Max-NSigAt=       8 Max-NSgAt2=       8
 IPart=  1         5629 of         6298 points in       7 batches and       29 microbatches, Max-NSigAt=       8 Max-NSgAt2=       8
 IPart= 31         5673 of         6526 points in       9 batches and       45 microbatches, Max-NSigAt=       8 Max-NSgAt2=       8
 IPart= 20         4517 of         4772 points in       5 batches and       31 microbatches, Max-NSigAt=       8 Max-NSgAt2=       8
 IPart=  2         5339 of         5962 points in       8 batches and       52 microbatches, Max-NSigAt=       8 Max-NSgAt2=       8
 IPart= 10         4743 of         4748 points in       4 batches and       13 microbatches, Max-NSigAt=       8 Max-NSgAt2=       8
 IPart=  4         4701 of         4776 points in       4 batches and       14 microbatches, Max-NSigAt=       8 Max-NSgAt2=       8
 IPart= 19         5226 of         5694 points in       6 batches and       27 microbatches, Max-NSigAt=       8 Max-NSgAt2=       8
 IPart= 15         4874 of         5580 points in       7 batches and       52 microbatches, Max-NSigAt=       8 Max-NSgAt2=       8
 IPart= 14         4340 of         4734 points in       5 batches and       26 microbatches, Max-NSigAt=       8 Max-NSgAt2=       8
 IPart= 24         6031 of         6784 points in       8 batches and       45 microbatches, Max-NSigAt=       8 Max-NSgAt2=       8
 IPart=  5         6017 of         6498 points in       7 batches and       30 microbatches, Max-NSigAt=       8 Max-NSgAt2=       8
 IPart=  8         5282 of         5724 points in       7 batches and       51 microbatches, Max-NSigAt=       8 Max-NSgAt2=       8
 IPart= 22         5078 of         5308 points in       5 batches and       24 microbatches, Max-NSigAt=       8 Max-NSgAt2=       8
 IPart= 16         5900 of         6300 points in       7 batches and       32 microbatches, Max-NSigAt=       8 Max-NSgAt2=       8
 IPart=  9         5418 of         5914 points in       6 batches and       20 microbatches, Max-NSigAt=       8 Max-NSgAt2=       8
 IPart= 13         5935 of         6696 points in       8 batches and       43 microbatches, Max-NSigAt=       8 Max-NSgAt2=       8
 IPart= 23         5066 of         5324 points in       5 batches and       30 microbatches, Max-NSigAt=       8 Max-NSgAt2=       8
 IPart= 30         5741 of         6458 points in       8 batches and       47 microbatches, Max-NSigAt=       8 Max-NSgAt2=       8
 IPart= 25         4922 of         5324 points in       5 batches and       27 microbatches, Max-NSigAt=       8 Max-NSgAt2=       8
 IPart= 21         4925 of         5324 points in       5 batches and       29 microbatches, Max-NSigAt=       8 Max-NSgAt2=       8
 Forces at end of L703
 I=    0 X=   2.720478493945D-05 Y=  -1.389851103806D-05 Z=   4.184315770317D-06
 I=    1 X=  -2.880190736915D-04 Y=  -5.991845893453D-04 Z=  -8.296288575017D-05
 I=    2 X=   3.862210977312D-03 Y=   8.135943683453D-03 Z=  -1.691793283531D-04
 I=    3 X=   1.388719174553D-03 Y=   8.158456273512D-03 Z=   3.582974616467D-03
 I=    4 X=   5.446894535119D-03 Y=   6.231895974954D-03 Z=   3.582524314281D-03
 I=    5 X=   1.910589806424D-04 Y=   6.024230821676D-04 Z=   2.188952683859D-04
 I=    6 X=  -1.342158694842D-03 Y=  -8.140188168037D-03 Z=  -3.619336657473D-03
 I=    7 X=  -5.417690653650D-03 Y=  -6.231935977852D-03 Z=  -3.625594061341D-03
 I=    8 X=  -3.841015245455D-03 Y=  -8.157410278854D-03 Z=   1.126787337893D-04
 FrcOut:
 IF    =    45 IFX   =    69 IFXYZ =    93
 IFFX  =   117 IFFFX =   417 IFLen =    24
 IFFLen=   300 IFFFLn=     0 IEDerv=   417
 LEDerv=  1205 IFroze=  1904 ICStrt=108261
 FCEst1:  Generated internal coordinate force constants:
                1             2             3             4             5 
      1  0.591148D+00
      2 -0.127153D+00  0.383611D+00
      3 -0.401276D-01 -0.845333D-01  0.625148D+00
      4 -0.845920D-01  0.936032D-02 -0.718070D-02  0.623727D-01
      5  0.936029D-02 -0.693095D-01 -0.151296D-01 -0.427897D-02  0.553836D-01
      6  0.000000D+00  0.000000D+00 -0.355866D+00  0.000000D+00  0.000000D+00
      7 -0.317578D+00  0.362525D-02  0.979582D-01  0.149068D-01  0.131655D-03
      8 -0.103203D-01 -0.692758D-01  0.144856D-01  0.339679D-03  0.989370D-03
      9  0.907860D-01  0.862270D-02 -0.122753D+00  0.354561D-01  0.313143D-03
     10 -0.165252D+00  0.113985D+00 -0.507105D-01  0.632172D-02 -0.666617D-02
     11  0.127930D+00 -0.221601D+00  0.850555D-01 -0.687424D-02  0.957450D-02
     12 -0.507179D-01  0.757916D-01 -0.122751D+00 -0.221742D-01  0.276682D-01
     13 -0.291467D-01  0.252272D-02  0.800286D-03  0.990799D-03  0.145322D-02
     14  0.251908D-02 -0.250236D-01  0.167532D-02  0.145327D-02  0.336202D-02
     15  0.797980D-03  0.167288D-02 -0.298188D-01 -0.610128D-02 -0.128517D-01
     16 -0.203117D-02  0.563981D-03  0.126961D-02 -0.187469D-03  0.889986D-04
     17 -0.112861D-01  0.336626D-02  0.631705D-02  0.229746D-03 -0.109069D-03
     18 -0.482909D-02  0.134073D-02  0.301890D-02 -0.446413D-03  0.211929D-03
     19  0.645813D-02 -0.435626D-02  0.409265D-02 -0.296569D-03  0.140792D-03
     20  0.749160D-02 -0.512642D-02  0.497928D-02  0.000000D+00  0.000000D+00
     21  0.409071D-02 -0.289396D-02  0.301935D-02  0.446299D-03 -0.211874D-03
     22  0.993734D-03  0.145209D-02 -0.610197D-02  0.484074D-03 -0.229807D-03
     23  0.145858D-02  0.335891D-02 -0.128499D-01 -0.229885D-03  0.109135D-03
     24  0.000000D+00  0.000000D+00  0.239202D-05  0.000000D+00  0.000000D+00
                6             7             8             9            10 
      6  0.355866D+00
      7  0.000000D+00  0.311679D+00
      8  0.000000D+00 -0.165964D-02  0.553650D-01
      9  0.000000D+00 -0.104818D+00 -0.394748D-02  0.106437D+00
     10  0.000000D+00 -0.697724D-02  0.229231D-01 -0.165954D-01  0.159449D+00
     11  0.000000D+00 -0.266065D-02  0.955781D-02 -0.632840D-02 -0.125885D+00
     12  0.000000D+00  0.558930D-02 -0.168586D-01  0.132942D-01  0.632121D-01
     13  0.000000D+00 -0.203025D-02 -0.112828D-01 -0.482897D-02  0.645833D-02
     14  0.000000D+00  0.563367D-03  0.336364D-02  0.133997D-02 -0.435675D-02
     15  0.000000D+00  0.127018D-02  0.632044D-02  0.302114D-02  0.409391D-02
     16  0.000000D+00  0.726566D-04 -0.889783D-04  0.172814D-03  0.114864D-03
     17  0.000000D+00 -0.890413D-04  0.109044D-03 -0.211786D-03 -0.140767D-03
     18  0.000000D+00  0.173014D-03 -0.211881D-03  0.411516D-03  0.273522D-03
     19  0.000000D+00  0.114940D-03 -0.140760D-03  0.273386D-03  0.181711D-03
     20  0.000000D+00  0.000000D+00  0.000000D+00  0.000000D+00  0.000000D+00
     21  0.000000D+00 -0.172970D-03  0.211826D-03 -0.411411D-03 -0.273452D-03
     22  0.000000D+00 -0.187610D-03  0.229755D-03 -0.446233D-03 -0.296596D-03
     23  0.000000D+00  0.890955D-04 -0.109110D-03  0.211915D-03  0.140853D-03
     24  0.000000D+00  0.000000D+00  0.000000D+00  0.000000D+00  0.000000D+00
               11            12            13            14            15 
     11  0.207595D+00
     12 -0.837069D-01  0.106437D+00
     13  0.749011D-02  0.409064D-02  0.591367D+00
     14 -0.512588D-02 -0.289422D-02 -0.127204D+00  0.383571D+00
     15  0.497979D-02  0.302027D-02 -0.402030D-01 -0.844059D-01  0.624970D+00
     16  0.000000D+00 -0.172814D-03 -0.317743D+00  0.367956D-02  0.979366D-01
     17  0.000000D+00  0.211785D-03 -0.102730D-01 -0.692982D-01  0.144595D-01
     18  0.000000D+00 -0.411515D-03  0.907620D-01  0.860032D-02 -0.122728D+00
     19  0.000000D+00 -0.273385D-03 -0.165312D+00  0.113997D+00 -0.507123D-01
     20  0.000000D+00  0.000000D+00  0.127937D+00 -0.221569D+00  0.850503D-01
     21  0.000000D+00  0.411410D-03 -0.507109D-01  0.757814D-01 -0.122720D+00
     22  0.000000D+00  0.446231D-03 -0.845837D-01  0.934930D-02 -0.708216D-02
     23  0.000000D+00 -0.211914D-03  0.935668D-02 -0.692802D-01 -0.152253D-01
     24  0.000000D+00  0.000000D+00  0.899393D-04 -0.968722D-04 -0.355744D+00
               16            17            18            19            20 
     16  0.311846D+00
     17 -0.171515D-02  0.553785D-01
     18 -0.104794D+00 -0.391614D-02  0.106399D+00
     19 -0.696775D-02  0.229235D-01 -0.166000D-01  0.159499D+00
     20 -0.265868D-02  0.956394D-02 -0.633452D-02 -0.125898D+00  0.207563D+00
     21  0.558243D-02 -0.168602D-01  0.132988D-01  0.632151D-01 -0.836894D-01
     22  0.148959D-01  0.350780D-03  0.354607D-01  0.632308D-02 -0.687238D-02
     23  0.130313D-03  0.989535D-03  0.309670D-03 -0.666579D-02  0.956885D-02
     24  0.507471D-05  0.000000D+00  0.120809D-04  0.450235D-05 -0.570544D-05
               21            22            23            24 
     21  0.106419D+00
     22 -0.221772D-01  0.623711D-01
     23  0.276620D-01 -0.427985D-02  0.553630D-01
     24 -0.172876D-04 -0.993482D-04  0.103477D-03  0.355747D+00
 Quadrupole    =-1.19021155D-01 3.06864966D-01-1.87843811D-01
                 2.61028106D-01 8.17390463D-02 1.73293439D-01
 -------------------------------------------------------------------
 Center     Atomic                   Forces (Hartrees/Bohr)
 Number     Number              X              Y              Z
 -------------------------------------------------------------------
      1        6           0.000288019    0.000599185    0.000082963
      2        1          -0.003862211   -0.008135944    0.000169179
      3        1          -0.001388719   -0.008158456   -0.003582975
      4        1          -0.005446895   -0.006231896   -0.003582524
      5        6          -0.000191059   -0.000602423   -0.000218895
      6        1           0.001342159    0.008140188    0.003619337
      7        1           0.005417691    0.006231936    0.003625594
      8        1           0.003841015    0.008157410   -0.000112679
 -------------------------------------------------------------------
 Cartesian Forces:  Max     0.008158456 RMS     0.004511595
 From PutF, contents of force:
   1    0.1691793284D-03
   2    0.1084774138D-03
   3    0.1122077326D-03
   4    0.7864837410D-02
   5    0.7860636760D-02
   6   -0.1540216979D-01
   7    0.1660447292D-03
   8    0.1128004284D-03
   9    0.1111489742D-03
  10    0.7875344487D-02
  11    0.7863025022D-02
  12    0.1539747219D-01
  13    0.2936774838D-05
  14    0.2222458209D-05
  15   -0.4544644954D-05
  16   -0.4144666715D-05
  17    0.2001814612D-05
  18   -0.2523800241D-01
 -----------------------------------------------------------------------------------------------
                       Internal Coordinate Forces (Hartree/Bohr or radian)
  Cent   Atom   N1       Length/X         N2         Alpha/Y        N3         Beta/Z          J
 -----------------------------------------------------------------------------------------------
      1  C 
      2  H        1   0.000169(     1)
      3  H        1   0.000108(     2)      2   0.007865(     8)
      4  H        1   0.000112(     3)      2   0.007861(     9)      3  -0.015402(    14)     0
      5  C        1  -0.025238(     4)      2   0.000002(    10)      3  -0.000004(    15)     0
      6  H        5   0.000166(     5)      1   0.000003(    11)      2  -0.000005(    16)     0
      7  H        5   0.000113(     6)      6   0.007875(    12)      1   0.000002(    17)     0
      8  H        5   0.000111(     7)      6   0.007863(    13)      7   0.015397(    18)     0
 -----------------------------------------------------------------------------------------------
 Internal  Forces:  Max     0.025238002 RMS     0.008688642
 Force constants in Cartesian coordinates: 
                1             2             3             4             5 
      1  0.591148D+00
      2 -0.127153D+00  0.383611D+00
      3 -0.401276D-01 -0.845333D-01  0.625148D+00
      4 -0.845920D-01  0.936032D-02 -0.718070D-02  0.623727D-01
      5  0.936029D-02 -0.693095D-01 -0.151296D-01 -0.427897D-02  0.553836D-01
      6  0.000000D+00  0.000000D+00 -0.355866D+00  0.000000D+00  0.000000D+00
      7 -0.317578D+00  0.362525D-02  0.979582D-01  0.149068D-01  0.131655D-03
      8 -0.103203D-01 -0.692758D-01  0.144856D-01  0.339679D-03  0.989370D-03
      9  0.907860D-01  0.862270D-02 -0.122753D+00  0.354561D-01  0.313143D-03
     10 -0.165252D+00  0.113985D+00 -0.507105D-01  0.632172D-02 -0.666617D-02
     11  0.127930D+00 -0.221601D+00  0.850555D-01 -0.687424D-02  0.957450D-02
     12 -0.507179D-01  0.757916D-01 -0.122751D+00 -0.221742D-01  0.276682D-01
     13 -0.291467D-01  0.252272D-02  0.800286D-03  0.990799D-03  0.145322D-02
     14  0.251908D-02 -0.250236D-01  0.167532D-02  0.145327D-02  0.336202D-02
     15  0.797980D-03  0.167288D-02 -0.298188D-01 -0.610128D-02 -0.128517D-01
     16 -0.203117D-02  0.563981D-03  0.126961D-02 -0.187469D-03  0.889986D-04
     17 -0.112861D-01  0.336626D-02  0.631705D-02  0.229746D-03 -0.109069D-03
     18 -0.482909D-02  0.134073D-02  0.301890D-02 -0.446413D-03  0.211929D-03
     19  0.645813D-02 -0.435626D-02  0.409265D-02 -0.296569D-03  0.140792D-03
     20  0.749160D-02 -0.512642D-02  0.497928D-02  0.000000D+00  0.000000D+00
     21  0.409071D-02 -0.289396D-02  0.301935D-02  0.446299D-03 -0.211874D-03
     22  0.993734D-03  0.145209D-02 -0.610197D-02  0.484074D-03 -0.229807D-03
     23  0.145858D-02  0.335891D-02 -0.128499D-01 -0.229885D-03  0.109135D-03
     24  0.000000D+00  0.000000D+00  0.239202D-05  0.000000D+00  0.000000D+00
                6             7             8             9            10 
      6  0.355866D+00
      7  0.000000D+00  0.311679D+00
      8  0.000000D+00 -0.165964D-02  0.553650D-01
      9  0.000000D+00 -0.104818D+00 -0.394748D-02  0.106437D+00
     10  0.000000D+00 -0.697724D-02  0.229231D-01 -0.165954D-01  0.159449D+00
     11  0.000000D+00 -0.266065D-02  0.955781D-02 -0.632840D-02 -0.125885D+00
     12  0.000000D+00  0.558930D-02 -0.168586D-01  0.132942D-01  0.632121D-01
     13  0.000000D+00 -0.203025D-02 -0.112828D-01 -0.482897D-02  0.645833D-02
     14  0.000000D+00  0.563367D-03  0.336364D-02  0.133997D-02 -0.435675D-02
     15  0.000000D+00  0.127018D-02  0.632044D-02  0.302114D-02  0.409391D-02
     16  0.000000D+00  0.726566D-04 -0.889783D-04  0.172814D-03  0.114864D-03
     17  0.000000D+00 -0.890413D-04  0.109044D-03 -0.211786D-03 -0.140767D-03
     18  0.000000D+00  0.173014D-03 -0.211881D-03  0.411516D-03  0.273522D-03
     19  0.000000D+00  0.114940D-03 -0.140760D-03  0.273386D-03  0.181711D-03
     20  0.000000D+00  0.000000D+00  0.000000D+00  0.000000D+00  0.000000D+00
     21  0.000000D+00 -0.172970D-03  0.211826D-03 -0.411411D-03 -0.273452D-03
     22  0.000000D+00 -0.187610D-03  0.229755D-03 -0.446233D-03 -0.296596D-03
     23  0.000000D+00  0.890955D-04 -0.109110D-03  0.211915D-03  0.140853D-03
     24  0.000000D+00  0.000000D+00  0.000000D+00  0.000000D+00  0.000000D+00
               11            12            13            14            15 
     11  0.207595D+00
     12 -0.837069D-01  0.106437D+00
     13  0.749011D-02  0.409064D-02  0.591367D+00
     14 -0.512588D-02 -0.289422D-02 -0.127204D+00  0.383571D+00
     15  0.497979D-02  0.302027D-02 -0.402030D-01 -0.844059D-01  0.624970D+00
     16  0.000000D+00 -0.172814D-03 -0.317743D+00  0.367956D-02  0.979366D-01
     17  0.000000D+00  0.211785D-03 -0.102730D-01 -0.692982D-01  0.144595D-01
     18  0.000000D+00 -0.411515D-03  0.907620D-01  0.860032D-02 -0.122728D+00
     19  0.000000D+00 -0.273385D-03 -0.165312D+00  0.113997D+00 -0.507123D-01
     20  0.000000D+00  0.000000D+00  0.127937D+00 -0.221569D+00  0.850503D-01
     21  0.000000D+00  0.411410D-03 -0.507109D-01  0.757814D-01 -0.122720D+00
     22  0.000000D+00  0.446231D-03 -0.845837D-01  0.934930D-02 -0.708216D-02
     23  0.000000D+00 -0.211914D-03  0.935668D-02 -0.692802D-01 -0.152253D-01
     24  0.000000D+00  0.000000D+00  0.899393D-04 -0.968722D-04 -0.355744D+00
               16            17            18            19            20 
     16  0.311846D+00
     17 -0.171515D-02  0.553785D-01
[...]
     7   1     0.29   0.01  -0.47     0.01   0.05   0.12     0.30   0.01  -0.49
     8   1     0.18  -0.10   0.05    -0.53   0.08   0.02     0.19  -0.10   0.05
                     13                     14                     15
                      A                      A                      A
 Frequencies --   3124.2681              3124.6349              3298.0015
 Red. masses --      1.0098                 1.0100                 1.1179
 Frc consts  --      5.8076                 5.8097                 7.1638
 IR Inten    --   2.113                 0.2871E-01              1.201    
  Atom  AN      X      Y      Z        X      Y      Z        X      Y      Z
     1   6    -0.00  -0.01  -0.00    -0.00  -0.01  -0.00     0.06  -0.01   0.01
     2   1    -0.00  -0.01   0.45    -0.00  -0.01   0.36     0.01  -0.00  -0.06
     3   1     0.40  -0.01  -0.22     0.31  -0.01  -0.17    -0.36   0.00   0.21
     4   1    -0.37   0.14  -0.22    -0.29   0.11  -0.17    -0.39   0.15  -0.23
     5   6    -0.00  -0.01  -0.00     0.00   0.01   0.00    -0.04   0.01  -0.06
     6   1     0.31  -0.01  -0.17    -0.39   0.01   0.22     0.06   0.00  -0.05
     7   1    -0.29   0.11  -0.17     0.37  -0.14   0.22     0.47  -0.18   0.27
     8   1     0.00  -0.00   0.36    -0.00   0.00  -0.45    -0.01   0.00   0.50
                     16                     17                     18
                      A                      A                      A
 Frequencies --   3298.1385              3298.7836              3299.0566
 Red. masses --      1.1174                 1.1175                 1.1173
 Frc consts  --      7.1616                 7.1648                 7.1650
 IR Inten    --   4.519                  4.091                  5.437    
  Atom  AN      X      Y      Z        X      Y      Z        X      Y      Z
     1   6     0.07  -0.01  -0.02     0.01  -0.01   0.09     0.01   0.00  -0.02
     2   1     0.01  -0.00   0.13     0.00   0.00  -0.77     0.00  -0.00   0.20
     3   1    -0.52   0.00   0.29     0.28  -0.00  -0.14    -0.15   0.00   0.08
     4   1    -0.38   0.15  -0.23    -0.38   0.15  -0.21     0.03  -0.01   0.01
     5   6     0.02  -0.01   0.06     0.03  -0.01   0.00     0.08  -0.01  -0.05
     6   1     0.06  -0.00  -0.02    -0.17   0.00   0.10    -0.68   0.00   0.38
     7   1    -0.34   0.13  -0.19    -0.17   0.07  -0.10    -0.28   0.11  -0.18
     8   1     0.00  -0.00  -0.48     0.00  -0.00  -0.01     0.01  -0.00   0.43

 -------------------
 - Thermochemistry -
 -------------------
 Temperature   298.150 Kelvin.  Pressure   1.00000 Atm.
 Atom     1 has atomic number  6 and mass  12.00000
 Atom     2 has atomic number  1 and mass   1.00783
 Atom     3 has atomic number  1 and mass   1.00783
 Atom     4 has atomic number  1 and mass   1.00783
 Atom     5 has atomic number  6 and mass  12.00000
 Atom     6 has atomic number  1 and mass   1.00783
 Atom     7 has atomic number  1 and mass   1.00783
 Atom     8 has atomic number  1 and mass   1.00783
 Molecular mass:    30.04695 amu.
 Principal axes and moments of inertia in atomic units:
                           1         2         3
     Eigenvalues --    24.81351 230.24988 230.25260
           X            0.18557  -0.02364   0.98235
           Y            0.97663  -0.10588  -0.18704
           Z            0.10844   0.99410   0.00344
 This molecule is an asymmetric top.
 Rotational symmetry number  1.
 Rotational temperatures (Kelvin)      3.49059     0.37617     0.37617
 Rotational constants (GHZ):          72.73219     7.83819     7.83809
    1 imaginary frequencies ignored.
 Zero-point vibrational energy     168683.5 (Joules/Mol)
                                   40.31632 (Kcal/Mol)
 Warning -- explicit consideration of   5 degrees of freedom as
           vibrations may cause significant error
 Vibrational temperatures:     61.24   503.41   513.06   665.24   671.34
          (Kelvin)            976.76  1054.53  2035.74  2036.05  2042.13
                             2042.44  4495.12  4495.65  4745.08  4745.28
                             4746.21  4746.60
 
 Zero-point correction=                           0.064248 (Hartree/Particle)
 Thermal correction to Energy=                    0.069399
 Thermal correction to Enthalpy=                  0.070344
 Thermal correction to Gibbs Free Energy=         0.038248
 Sum of electronic and zero-point Energies=            -79.629574
 Sum of electronic and thermal Energies=               -79.624423
 Sum of electronic and thermal Enthalpies=             -79.623478
 Sum of electronic and thermal Free Energies=          -79.655574
 
                     E (Thermal)             CV                S
                      KCal/Mol        Cal/Mol-Kelvin    Cal/Mol-Kelvin
 Total                   43.549             15.774             67.551
 Electronic               0.000              0.000              0.000
 Translational            0.889              2.981             36.134
 Rotational               0.889              2.981             21.803
 Vibrational             41.771              9.812              9.614
 Vibration     1          0.595              1.980              5.136
 Vibration     2          0.727              1.575              1.167
 Vibration     3          0.732              1.562              1.137
 Vibration     4          0.820              1.334              0.759
 Vibration     5          0.824              1.324              0.747
                       Q            Log10(Q)             Ln(Q)
 Total Bot       0.255355D-17        -17.592855        -40.509046
 Total V=0       0.910286D+12         11.959178         27.537024
 Vib (Bot)       0.303806D-28        -28.517403        -65.663748
 Vib (Bot)    1  0.485999D+01          0.686636          1.581037
 Vib (Bot)    2  0.527349D+00         -0.277902         -0.639893
 Vib (Bot)    3  0.515161D+00         -0.288057         -0.663276
 Vib (Bot)    4  0.367143D+00         -0.435164         -1.002003
 Vib (Bot)    5  0.362522D+00         -0.440665         -1.014669
 Vib (V=0)       0.108300D+02          1.034629          2.382322
 Vib (V=0)    1  0.538564D+01          0.731238          1.683737
 Vib (V=0)    2  0.122670D+01          0.088739          0.204330
 Vib (V=0)    3  0.121791D+01          0.085614          0.197134
 Vib (V=0)    4  0.112032D+01          0.049341          0.113612
 Vib (V=0)    5  0.111759D+01          0.048284          0.111178
 Electronic      0.100000D+01          0.000000          0.000000
 Translational   0.647375D+07          6.811156         15.683266
 Rotational      0.129835D+05          4.113393          9.471436
 -------------------------------------------------------------------
 Center     Atomic                   Forces (Hartrees/Bohr)
 Number     Number              X              Y              Z
 -------------------------------------------------------------------
      1        6          -0.003479557   -0.018532868   -0.002169530
      2        1           0.000001904    0.000026505    0.000040118
      3        1          -0.000035938    0.000012772    0.000029333
      4        1           0.000010996   -0.000044089    0.000025848
      5        6           0.003598147    0.018539080    0.002068884
      6        1          -0.000050106   -0.000037804    0.000001241
      7        1          -0.000037836    0.000000226   -0.000031223
      8        1          -0.000007610    0.000036177    0.000035329
 -------------------------------------------------------------------
 Cartesian Forces:  Max     0.018539080 RMS     0.005481872
 -----------------------------------------------------------------------------------------------
                       Internal Coordinate Forces (Hartree/Bohr or radian)
  Cent   Atom   N1       Length/X         N2         Alpha/Y        N3         Beta/Z          J
 -----------------------------------------------------------------------------------------------
      1  C 
      2  H        1   0.000040(     1)
      3  H        1  -0.000046(     2)      2  -0.000017(     8)
      4  H        1  -0.000036(     3)      2  -0.000020(     9)      3  -0.000066(    14)     0
      5  C        1  -0.018979(     4)      2   0.000043(    10)      3   0.000065(    15)     0
      6  H        5   0.000044(     5)      1   0.000102(    11)      2  -0.000013(    16)     0
      7  H        5  -0.000046(     6)      6   0.000010(    12)      1   0.000094(    17)     0
      8  H        5  -0.000036(     7)      6  -0.000016(    13)      7   0.000064(    18)     0
 -----------------------------------------------------------------------------------------------
 Internal  Forces:  Max     0.018979343 RMS     0.004473755

 GradGradGradGradGradGradGradGradGradGradGradGradGradGradGradGradGradGrad
 Berny optimization.
 Search for a local minimum.
 Step number   1 out of a maximum of    2
 All quantities printed in internal units (Hartrees-Bohrs-Radians)
 Second derivative matrix not updated -- analytic derivatives used.
 The second derivative matrix:
                          R1        R2        R3        A2        A3
           R1           0.37117
           R2           0.00015   0.37097
           R3           0.00015   0.00017   0.37099
           A2           0.01617   0.00144  -0.01511   0.18396
           A3           0.01617  -0.01510   0.00143   0.08450   0.18390
           D3           0.00011  -0.00512  -0.00647   0.02905   0.02410
           R21          0.00007  -0.00012   0.00007   0.00005  -0.00002
           R22          0.00007   0.00007  -0.00012  -0.00002   0.00005
           R23         -0.00012   0.00007   0.00007  -0.00011  -0.00010
           A22         -0.00002  -0.00010   0.00005  -0.00042  -0.00043
           A23          0.00005  -0.00010  -0.00002   0.00047  -0.00041
           D23          0.00022  -0.00028  -0.00030   0.00004   0.00017
           ANG2         0.00031  -0.00060   0.00030  -0.00110   0.00114
           DH3          0.00052  -0.00000  -0.00052   0.00069  -0.00058
           DH2         -0.00000  -0.00000  -0.00000   0.00014  -0.00014
           DH1         -0.00001  -0.00125   0.00124  -0.00523   0.00526
           ANG1        -0.00146   0.00072   0.00073   0.00044   0.00043
           BB          -0.00058  -0.00058  -0.00057  -0.00151  -0.00148
                          D3        R21       R22       R23       A22
           D3           0.03659
           R21          0.00029   0.37128
           R22         -0.00022   0.00017   0.37098
           R23          0.00028   0.00015   0.00016   0.37095
           A22         -0.00076   0.01619   0.00141  -0.01507   0.18425
           A23          0.00065   0.01610  -0.01502   0.00140   0.08446
           D23          0.00136  -0.00011   0.00513   0.00635  -0.02909
           ANG2        -0.00238  -0.00154   0.00081   0.00070   0.00061
           DH3          0.00435   0.00004  -0.00137   0.00120  -0.00552
           DH2         -0.00001  -0.00013   0.00010   0.00000  -0.00024
           DH1         -0.01869  -0.00044   0.00041   0.00000   0.00027
           ANG1        -0.01127   0.00028   0.00025  -0.00065   0.00098
           BB           0.00675  -0.00058  -0.00057  -0.00057  -0.00150
                          A23       D23      ANG2       DH3       DH2
           A23          0.18412
           D23         -0.02362   0.03725
           ANG2         0.00049   0.01173   0.03842
           DH3          0.00549   0.01942   0.00054   0.03803
           DH2          0.00019  -0.00001  -0.00031   0.00039   0.00039
           DH1         -0.00058   0.00013   0.00721  -0.00436   0.00050
           ANG1        -0.00082  -0.00399  -0.00353  -0.00637   0.00024
           BB          -0.00147  -0.00670   0.00020   0.00016  -0.00000
                          DH1      ANG1       BB
           DH1          0.03765
           ANG1        -0.00017   0.03947
           BB          -0.00008   0.00029  -0.02186
 ITU=  0
     Eigenvalues ---    0.00036   0.01193   0.01226   0.03195   0.03850
     Eigenvalues ---    0.05515   0.06210   0.09931   0.10113   0.26699
     Eigenvalues ---    0.26791   0.37149   0.37151   0.37175   0.37191
     Eigenvalues ---    0.37797   0.378131000.00000
 Angle between quadratic step and forces=  80.75 degrees.
 Linear search not attempted -- first point.
 Variable       Old X    -DE/DX   Delta X   Delta X   Delta X     New X
                                 (Linear)    (Quad)   (Total)
    R1        2.03811   0.00004   0.00000   0.00011   0.00011   2.03822
    R2        2.03837  -0.00005   0.00000  -0.00013  -0.00013   2.03824
    R3        2.03835  -0.00004   0.00000  -0.00010  -0.00010   2.03824
    A2        2.07326  -0.00002   0.00000   0.00015   0.00015   2.07340
    A3        2.07338  -0.00002   0.00000  -0.00024  -0.00024   2.07314
    D3        3.52126  -0.00007   0.00000  -0.00038  -0.00038   3.52088
   R21        2.03810   0.00004   0.00000   0.00013   0.00013   2.03823
   R22        2.03837  -0.00005   0.00000  -0.00011  -0.00011   2.03826
   R23        2.03832  -0.00004   0.00000  -0.00009  -0.00009   2.03824
   A22        2.07301   0.00001   0.00000   0.00007   0.00007   2.07309
   A23        2.07357  -0.00002   0.00000  -0.00034  -0.00034   2.07323
   D23        2.76252   0.00006   0.00000  -0.00105  -0.00105   2.76147
   ANG2       1.67920   0.00010   0.00000   0.00240   0.00240   1.68160
   DH3        1.75658   0.00009   0.00000   0.00403   0.00403   1.76061
   DH2        1.04284  -0.00001   0.00000  -0.03848  -0.03848   1.00436
   DH1        1.75863   0.00007   0.00000   0.00212   0.00212   1.76075
   ANG1       1.67942   0.00004   0.00000   0.00198   0.00198   1.68140
    BB        5.29123  -0.01898   0.00000   0.00000   0.00000   5.29123
         Item               Value     Threshold  Converged?
 Maximum Force            0.000102     0.000450     YES
 RMS     Force            0.000052     0.000300     YES
 Maximum Displacement     0.038482     0.001800     NO 
 RMS     Displacement     0.009168     0.001200     NO 
 Predicted change in Energy=-6.657013D-07
 GradGradGradGradGradGradGradGradGradGradGradGradGradGradGradGradGradGrad


 Test job not archived.
 1\1\GINC-NODE-6-11\Freq\UwB97XD\Aug-CC-pVTZ\C2H6\CAVALLOTTI\27-May-202
 3\1\\#N Geom=AllCheck Guess=TCheck SCRF=Check Test GenChk UwB97XD/Aug-
 CC-pVTZ Freq\\geom 0\\0,1\C\H,1,R1\H,1,R2,2,A2\H,1,R3,2,A3,3,D3,0\C,1,
 BB,2,ANG1,3,DH1,0\H,5,R21,1,ANG2,2,DH2,0\H,5,R22,6,A22,1,DH3,0\H,5,R23
 ,6,A23,7,D23,0\\R1=1.07852198\R2=1.07865775\R3=1.07864748\A2=118.78886
 569\A3=118.79611879\D3=201.75335169\R21=1.07851871\R22=1.07865763\R23=
 1.07863384\A22=118.77495018\A23=118.80681978\D23=158.28086454\ANG2=96.
 21099368\DH3=100.64444181\DH2=59.75043162\DH1=100.76192377\ANG1=96.223
 72188\BB=2.8\\Version=EM64L-G09RevD.01\HF=-79.693822\S2=0.6675\S2-1=0.
 \S2A=0.021697\RMSD=4.708e-09\RMSF=5.482e-03\ZeroPoint=0.0642481\Therma
 l=0.0693994\Dipole=0.0001789,-0.0000527,0.0008012\DipoleDeriv=0.000036
 2,-0.036435,-0.004081,-0.0370635,-0.1832946,-0.0221595,-0.0040895,-0.0
 21526,0.0046321,0.0454649,0.0047575,-0.0044548,0.004954,0.069572,-0.02
 28858,-0.0024909,-0.0133192,-0.0549579,-0.0345137,-0.0093564,0.0410849
 ,-0.0181127,0.0691243,0.0155645,0.0390541,0.010762,0.0252127,-0.010996
 6,0.0410464,-0.0325497,0.0502249,0.0446277,0.0294477,-0.0324662,0.0241
 21,0.0250977,-0.000069,-0.0363782,-0.003443,-0.0364957,-0.1842204,-0.0
 192473,-0.0038178,-0.0205741,0.0053536,-0.0339312,-0.0092954,0.0412511
 ,-0.018085,0.0693973,0.014956,0.0395113,0.0106094,0.0244092,-0.0115536
 ,0.0410637,-0.0328012,0.0499397,0.0453319,0.0285165,-0.0327213,0.02382
 13,0.0248458,0.045563,0.0045973,-0.0050063,0.0046381,0.0694618,-0.0241
 92,-0.0029796,-0.0138943,-0.0545933\Polar=31.4969659,5.8789081,61.3099
 261,0.6491669,3.4325535,30.7527011\PG=C01 [X(C2H6)]\NImag=1\\0.5967577
 3,-0.11037812,0.04260735,-0.01252148,-0.06532096,0.61076967,-0.0522630
 8,0.00780970,-0.00067472,0.04431123,0.00777236,-0.01318533,-0.00351585
 ,-0.00650254,0.01168757,0.00082261,0.00428955,-0.35757333,-0.00068492,
 -0.00355555,0.37117429,-0.28651648,0.00752517,0.12959046,0.00453847,0.
 00040623,-0.00368463,0.29461628,0.00071540,-0.01307945,0.00850560,0.00
 073846,0.00211281,0.00005568,-0.00630258,0.01157595,0.12811927,0.00476
 443,-0.12305149,0.02467139,0.00060973,-0.00702621,-0.13825372,-0.00399
 922,0.12065306,-0.25183359,0.08764864,-0.11721978,0.00380771,-0.001077
 11,0.00344741,-0.01266744,0.00799444,-0.01367777,0.26010505,0.09448243
 ,-0.04773665,0.05599047,-0.00143040,0.00283625,-0.00131157,-0.00178908
 ,0.00286384,-0.00058468,-0.09282205,0.04597241,-0.11724417,0.05195242,
 -0.12307387,-0.02268885,0.00970317,-0.00702555,0.01248353,-0.00560456,
 0.00940184,0.12693578,-0.05501763,0.12067315,-0.00659921,0.00954711,0.
 00105345,-0.00015183,-0.00061912,0.00014099,0.00000620,-0.00335404,-0.
 00075377,0.00059800,0.00182336,0.00037760,0.59731084,0.00955569,0.0417
 9926,0.00556814,-0.00063178,-0.00329557,0.00073808,0.00034001,-0.00328
 389,-0.00090200,-0.00186893,-0.00380684,-0.00110835,-0.10969946,0.0413
 9786,0.00105871,0.00552678,-0.00780747,-0.00066899,-0.00347115,0.00035
 007,0.00004633,0.00114214,0.00018823,0.00037820,0.00108135,0.00019005,
 -0.01194988,-0.06157811,0.61149170,0.00000709,0.00033918,0.00005242,-0
 .00009976,-0.00014394,-0.00008788,0.00007387,0.00003234,-0.00011378,0.
 00004770,-0.00006627,0.00001171,-0.28541700,0.00782566,0.13051378,0.29
 342723,-0.00336201,-0.00332623,0.00115195,-0.00001005,0.00045837,-0.00
 016180,0.00003072,-0.00096937,-0.00019852,0.00018612,0.00032872,0.0002
 5861,0.00106463,-0.01290177,0.00809419,-0.00663718,0.01145407,-0.00074
 163,-0.00088548,0.00018550,-0.00007184,0.00006534,-0.00001091,-0.00011
 165,-0.00019311,-0.00012247,0.00008235,0.00023946,-0.00003124,0.129105
 10,0.00428510,-0.12453147,-0.13924222,-0.00354628,0.12219665,0.0005984
 9,-0.00188952,0.00037165,0.00002900,0.00031670,0.00002262,0.00004835,0
 .00018774,0.00008250,-0.00008728,-0.00037564,0.00003215,-0.25341599,0.
 08676098,-0.11718419,-0.01268590,0.00785153,-0.01361725,0.26179405,0.0
 0182580,-0.00388385,0.00107166,0.00018200,0.00033556,-0.00017937,-0.00
 006804,0.00033511,0.00024422,-0.00037559,-0.00078897,-0.00022273,0.093
 57625,-0.04663810,0.05481242,-0.00174422,0.00283652,-0.00056621,-0.091
 84088,0.04492245,0.00036195,-0.00108426,0.00017894,0.00009303,0.000034
 40,-0.00001114,0.00001411,0.00025662,-0.00002997,0.00003369,-0.0002155
 4,-0.00012273,-0.11726140,0.05079720,-0.12254512,0.01261707,-0.0055882
 8,0.00944512,0.12689308,-0.05380577,0.12006805,-0.00015095,-0.00060217
 ,-0.00065200,-0.00017174,-0.00015257,0.00002380,-0.00009923,-0.0000117
 5,-0.00007412,0.00002985,0.00017764,0.00009225,-0.05233101,0.00771784,
 -0.00219397,0.00464677,0.00087623,0.02459713,0.00371927,-0.00155532,-0
 .02275153,0.04435705,-0.00061155,-0.00319509,-0.00345101,-0.00015540,-
 0.00094966,0.00012497,-0.00014242,0.00044499,0.00006605,0.00031449,0.0
 0033123,0.00003907,0.00766126,-0.01327096,-0.00560761,0.00039444,0.002
 11969,0.00060118,-0.00101091,0.00288128,0.00960564,-0.00644990,0.01163
 852,0.00014475,0.00075752,0.00037205,0.00002491,0.00012992,0.00012278,
 -0.00008443,-0.00016316,-0.00001299,0.00002011,-0.00018186,-0.00001165
 ,-0.00071209,0.00219993,-0.35733600,-0.00375110,-0.00000987,-0.0071311
 9,0.00339943,-0.00135421,-0.00698315,0.00095843,-0.00137828,0.37098016
 \\0.00347956,0.01853287,0.00216953,-0.00000190,-0.00002651,-0.00004012
 ,0.00003594,-0.00001277,-0.00002933,-0.00001100,0.00004409,-0.00002585
 ,-0.00359815,-0.01853908,-0.00206888,0.00005011,0.00003780,-0.00000124
 ,0.00003784,-0.00000023,0.00003122,0.00000761,-0.00003618,-0.00003533\
 \\@


 ... FOR AFTERWARDS A MAN FINDS PLEASURE IN HIS PAINS,
 WHEN HE HAS SUFFERED LONG AND WANDERED FAR.

                                    -- HOMER
 Job cpu time:       0 days  0 hours 52 minutes 12.8 seconds.
 File lengths (MBytes):  RWF=    106 Int=      0 D2E=      0 Chk=      7 Scr=      1
 Normal termination of Gaussian 09 at Sat May 27 08:54:19 2023.
