 Entering Gaussian System, Link 0=g09
 Input=geom.com
 Output=geom.log
 Initial command:
 /software/cinetica/g09d1/g09d01/d01/build-node-6-2-59348/src/main/l1.exe "/scratch/cc/140709/Gau-245372.inp" -scrdir="/scratch/cc/140709/"
 Entering Link 1 = /software/cinetica/g09d1/g09d01/d01/build-node-6-2-59348/src/main/l1.exe PID=    245373.
  
 Copyright (c) 1988,1990,1992,1993,1995,1998,2003,2009,2013,
            Gaussian, Inc.  All Rights Reserved.
  
 This is part of the Gaussian(R) 09 program.  It is based on
 the Gaussian(R) 03 system (copyright 2003, Gaussian, Inc.),
 the Gaussian(R) 98 system (copyright 1998, Gaussian, Inc.),
 the Gaussian(R) 94 system (copyright 1995, Gaussian, Inc.),
 the Gaussian 92(TM) system (copyright 1992, Gaussian, Inc.),
 the Gaussian 90(TM) system (copyright 1990, Gaussian, Inc.),
 the Gaussian 88(TM) system (copyright 1988, Gaussian, Inc.),
 the Gaussian 86(TM) system (copyright 1986, Carnegie Mellon
 University), and the Gaussian 82(TM) system (copyright 1983,
 Carnegie Mellon University). Gaussian is a federally registered
 trademark of Gaussian, Inc.
  
 This software contains proprietary and confidential information,
 including trade secrets, belonging to Gaussian, Inc.
  
 This software is provided under written license and may be
 used, copied, transmitted, or stored only in accord with that
 written license.
  
 The following legend is applicable only to US Government
 contracts under FAR:
  
                    RESTRICTED RIGHTS LEGEND
  
 Use, reproduction and disclosure by the US Government is
 subject to restrictions as set forth in subparagraphs (a)
 and (c) of the Commercial Computer Software - Restricted
 Rights clause in FAR 52.227-19.
  
 Gaussian, Inc.
 340 Quinnipiac St., Bldg. 40, Wallingford CT 06492
  
  
 ---------------------------------------------------------------
 Warning -- This program may not be used in any manner that
 competes with the business of Gaussian, Inc. or will provide
 assistance to any competitor of Gaussian, Inc.  The licensee
 of this program is prohibited from giving any competitor of
 Gaussian, Inc. access to this program.  By using this program,
 the user acknowledges that Gaussian, Inc. is engaged in the
 business of creating and licensing software in the field of
 computational chemistry and represents and warrants to the
 licensee that it is not a competitor of Gaussian, Inc. and that
 it will not use this program in any manner prohibited above.
 ---------------------------------------------------------------
  

 Cite this work as:
 Gaussian 09, Revision D.01,
 M. J. Frisch, G. W. Trucks, H. B. Schlegel, G. E. Scuseria, 
 M. A. Robb, J. R. Cheeseman, G. Scalmani, V. Barone, B. Mennucci, 
 G. A. Petersson, H. Nakatsuji, M. Caricato, X. Li, H. P. Hratchian, 
 A. F. Izmaylov, J. Bloino, G. Zheng, J. L. Sonnenberg, M. Hada, 
 M. Ehara, K. Toyota, R. Fukuda, J. Hasegawa, M. Ishida, T. Nakajima, 
 Y. Honda, O. Kitao, H. Nakai, T. Vreven, J. A. Montgomery, Jr., 
 J. E. Peralta, F. Ogliaro, M. Bearpark, J. J. Heyd, E. Brothers, 
 K. N. Kudin, V. N. Staroverov, T. Keith, R. Kobayashi, J. Normand, 
 K. Raghavachari, A. Rendell, J. C. Burant, S. S. Iyengar, J. Tomasi, 
 M. Cossi, N. Rega, J. M. Millam, M. Klene, J. E. Knox, J. B. Cross, 
 V. Bakken, C. Adamo, J. Jaramillo, R. Gomperts, R. E. Stratmann, 
 O. Yazyev, A. J. Austin, R. Cammi, C. Pomelli, J. W. Ochterski, 
 R. L. Martin, K. Morokuma, V. G. Zakrzewski, G. A. Voth, 
 P. Salvador, J. J. Dannenberg, S. Dapprich, A. D. Daniels, 
 O. Farkas, J. B. Foresman, J. V. Ortiz, J. Cioslowski, 
 and D. J. Fox, Gaussian, Inc., Wallingford CT, 2013.
 
 ******************************************
 Gaussian 09:  EM64L-G09RevD.01 24-Apr-2013
                 3-Jun-2023 
 ******************************************
 %mem=400MW
 %chk=tmp
 %NProcShared= 32
 Will use up to   32 processors via shared memory.
 ----------------------------------------------------------------------
 # uwb97xd/aug-cc-pvtz opt=(noeig,intern,maxcyc=50) # int=ultrafine nos
 ym iop(7/33=1) guess=(mix,always)
 ----------------------------------------------------------------------
 1/6=50,10=7,11=1,14=-1,18=40,26=4,38=1/1,3;
 2/12=2,15=1,17=6,18=5,29=3,40=1/2;
 3/5=16,6=1,7=10,11=2,16=1,25=1,30=1,71=1,74=-58,75=-5,116=2/1,2,3;
 4/13=-1/1;
 5/5=2,38=5/2;
 6/7=2,8=2,9=2,10=2,28=1/1;
 7/29=1,30=1,33=1/1,2,3,16;
 1/6=50,10=7,11=1,14=-1,18=40,26=4/3(2);
 2/15=1,29=3/2;
 99//99;
 2/15=1,29=3/2;
 3/5=16,6=1,7=10,11=2,16=1,25=1,30=1,71=1,74=-58,75=-5,116=2/1,2,3;
 4/13=-1/1;
 5/5=2,38=5/2;
 7/30=1,33=1/1,2,3,16;
 1/6=50,11=1,14=-1,18=40,26=4/3(-5);
 2/15=1,29=3/2;
 6/7=2,8=2,9=2,10=2,19=2,28=1/1;
 99/9=1/99;
 ------
 geom 0
 ------
 Symbolic Z-matrix:
 Charge =  0 Multiplicity = 1
 C1
 H2                   C1   R1
 H3                   C1   R2       H2   A2
 H4                   C1   R3       H2   A3       H3   D3       0
 H21                  1    rts      2    aabs1    3    babs1    0
       Variables:
  BABS1                95.8751                   
  AABS1                93.377                    
       Constants:
  R3                    1.0782                   
  A2                  119.9721                   
  A3                  120.0207                   
  D3                  179.8076                   
  R2                    1.0782                   
  R1                    1.0782                   
  RTS                   2.6                      
 

 GradGradGradGradGradGradGradGradGradGradGradGradGradGradGradGradGradGrad
 Berny optimization.
 Initialization pass.
                       ----------------------------
                       !    Initial Parameters    !
                       ! (Angstroms and Degrees)  !
 ----------------------                            ----------------------
 !      Name          Value   Derivative information (Atomic Units)     !
 ------------------------------------------------------------------------
 !      BABS1       95.8751   estimate D2E/DX2                          !
 !      AABS1       93.377    estimate D2E/DX2                          !
 !       R3          1.0782   Frozen                                    !
 !       A2        119.9721   Frozen                                    !
 !       A3        120.0207   Frozen                                    !
 !       D3        179.8076   Frozen                                    !
 !       R2          1.0782   Frozen                                    !
 !       R1          1.0782   Frozen                                    !
 !       RTS         2.6      Frozen                                    !
 ------------------------------------------------------------------------
 Trust Radius=3.00D-01 FncErr=1.00D-07 GrdErr=1.00D-06
 Number of steps in this run=     50 maximum allowed number of steps=    100.
 GradGradGradGradGradGradGradGradGradGradGradGradGradGradGradGradGradGrad

 ---------------------------------------------------------------------------------------------------
                            Z-MATRIX (ANGSTROMS AND DEGREES)
   CD    Cent   Atom    N1       Length/X        N2       Alpha/Y        N3        Beta/Z          J
 ---------------------------------------------------------------------------------------------------
      1      1  C 
      2      2  H        1   1.078200(     1)
      3      3  H        1   1.078200(     2)      2  119.972(     5)
      4      4  H        1   1.078200(     3)      2  120.021(     6)      3  179.808(     8)      0
      5      5  H        1   2.600000(     4)      2   93.377(     7)      3   95.875(     9)      0
 ---------------------------------------------------------------------------------------------------
                         Z-Matrix orientation:                         
 ---------------------------------------------------------------------
 Center     Atomic      Atomic             Coordinates (Angstroms)
 Number     Number       Type             X           Y           Z
 ---------------------------------------------------------------------
      1          6           0        0.000000    0.000000    0.000000
      2          1           0        0.000000    0.000000    1.078200
      3          1           0        0.934011    0.000000   -0.538645
      4          1           0       -0.933548   -0.003135   -0.539437
      5          1           0       -0.265674   -2.581852   -0.153155
 ---------------------------------------------------------------------
                    Distance matrix (angstroms):
                    1          2          3          4          5
     1  C    0.000000
     2  H    1.078200   0.000000
     3  H    1.078200   1.867235   0.000000
     4  H    1.078200   1.867692   1.867562   0.000000
     5  H    2.600000   2.872765   2.872944   2.691664   0.000000
 Symmetry turned off by external request.
 Stoichiometry    CH4
 Framework group  C1[X(CH4)]
 Deg. of freedom     9
 Full point group                 C1      NOp   1
 Rotational constants (GHZ):    145.2146206     62.0744346     61.8190938
 Standard basis: Aug-CC-pVTZ (5D, 7F)
   138 basis functions,   180 primitive gaussians,   155 cartesian basis functions
     5 alpha electrons        5 beta electrons
       nuclear repulsion energy        11.4706045527 Hartrees.
 NAtoms=    5 NActive=    5 NUniq=    5 SFac= 1.00D+00 NAtFMM=   60 NAOKFM=F Big=F
 Integral buffers will be    131072 words long.
 Raffenetti 2 integral format.
 Two-electron integral symmetry is turned off.
 Nuclear repulsion after empirical dispersion term =       11.4698983480 Hartrees.
 One-electron integrals computed using PRISM.
 NBasis=   138 RedAO= T EigKep=  9.79D-05  NBF=   138
 NBsUse=   138 1.00D-06 EigRej= -1.00D+00 NBFU=   138
 ExpMin= 2.53D-02 ExpMax= 8.24D+03 ExpMxC= 2.81D+02 IAcc=3 IRadAn=         5 AccDes= 0.00D+00
 Harris functional with IExCor= 4639 and IRadAn=       5 diagonalized for initial guess.
 HarFok:  IExCor= 4639 AccDes= 0.00D+00 IRadAn=         5 IDoV= 1 UseB2=F ITyADJ=14
 ICtDFT=  3500011 ScaDFX=  1.000000  1.000000  1.000000  1.000000
 FoFCou: FMM=F IPFlag=           0 FMFlag=      100000 FMFlg1=           0
         NFxFlg=           0 DoJE=T BraDBF=F KetDBF=T FulRan=T
         wScrn=  0.000000 ICntrl=     500 IOpCl=  0 I1Cent=   200000004 NGrid=           0
         NMat0=    1 NMatS0=      1 NMatT0=    0 NMatD0=    1 NMtDS0=    0 NMtDT0=    0
 Symmetry not used in FoFCou.
 Mixing orbitals, IMix= 1 IMixAn=  0 NRI=1 NE=    5 Coef=  7.07106781D-01  7.07106781D-01
 Mixing orbitals, IMix= 1 IMixAn=  0 NRI=1 NE=    5 Coef= -7.07106781D-01  7.07106781D-01
 Initial guess <Sx>= 0.0000 <Sy>= 0.0000 <Sz>= 0.0000 <S**2>= 1.0000 S= 0.6180
 Keep R1 and R2 ints in memory in canonical form, NReq=186089687.
 Requested convergence on RMS density matrix=1.00D-08 within 128 cycles.
 Requested convergence on MAX density matrix=1.00D-06.
 Requested convergence on             energy=1.00D-06.
 No special actions if energy rises.
 SCF Done:  E(UwB97XD) =  -40.3482737372     A.U. after   14 cycles
            NFock= 14  Conv=0.40D-08     -V/T= 2.0084
 <Sx>= 0.0000 <Sy>= 0.0000 <Sz>= 0.0000 <S**2>= 0.8210 S= 0.5349
 <L.S>=  0.00000000000    
 Annihilation of the first spin contaminant:
 S**2 before annihilation     0.8210,   after     0.0184

 **********************************************************************

            Population analysis using the SCF density.

 **********************************************************************

 Alpha  occ. eigenvalues --  -10.31156  -0.79485  -0.51773  -0.51753  -0.32391
 Alpha virt. eigenvalues --   -0.02409   0.03778   0.05073   0.05163   0.10408
 Alpha virt. eigenvalues --    0.11138   0.12705   0.12730   0.13844   0.19119
 Alpha virt. eigenvalues --    0.19699   0.20123   0.20522   0.26553   0.29868
 Alpha virt. eigenvalues --    0.30744   0.31097   0.32617   0.32669   0.33979
 Alpha virt. eigenvalues --    0.34006   0.37607   0.38681   0.38987   0.39720
 Alpha virt. eigenvalues --    0.40305   0.40465   0.44153   0.44195   0.57884
 Alpha virt. eigenvalues --    0.58828   0.66128   0.66947   0.68620   0.73126
 Alpha virt. eigenvalues --    0.73468   0.80200   0.80491   0.80628   0.80770
 Alpha virt. eigenvalues --    0.81058   0.81120   0.85855   0.86725   0.87942
 Alpha virt. eigenvalues --    0.94030   0.94367   0.94380   0.98394   0.99060
 Alpha virt. eigenvalues --    1.01741   1.01947   1.02861   1.03555   1.06832
 Alpha virt. eigenvalues --    1.07063   1.11330   1.11559   1.16042   1.19240
 Alpha virt. eigenvalues --    1.21095   1.27538   1.36720   1.39094   1.43458
 Alpha virt. eigenvalues --    1.49599   1.49645   1.50284   1.52545   1.56714
 Alpha virt. eigenvalues --    1.57369   1.59054   1.68632   1.78998   1.79346
 Alpha virt. eigenvalues --    1.94069   1.95728   1.95786   2.05487   2.05751
 Alpha virt. eigenvalues --    2.07363   2.75776   2.80141   2.81972   2.88306
 Alpha virt. eigenvalues --    2.98775   2.99382   3.01932   3.33803   3.33889
 Alpha virt. eigenvalues --    3.37606   3.38154   3.40347   3.42267   3.43440
 Alpha virt. eigenvalues --    3.43841   3.49679   3.68902   3.69777   3.72777
 Alpha virt. eigenvalues --    3.73060   3.79783   3.80233   3.86415   3.87365
 Alpha virt. eigenvalues --    4.02174   4.02323   4.02576   4.05444   4.06421
 Alpha virt. eigenvalues --    4.14359   4.15890   4.16538   4.32965   4.48174
 Alpha virt. eigenvalues --    4.57426   4.58312   4.59883   4.60557   4.78452
 Alpha virt. eigenvalues --    4.80369   5.04318   5.04338   5.09958   5.10035
 Alpha virt. eigenvalues --    5.17538   5.18077   5.28890   6.05925   6.21281
 Alpha virt. eigenvalues --    6.21976   6.39669  15.93810
  Beta  occ. eigenvalues --  -10.30166  -0.75411  -0.50682  -0.50678  -0.38553
  Beta virt. eigenvalues --   -0.00162   0.04233   0.05191   0.05210   0.06493
  Beta virt. eigenvalues --    0.13021   0.13069   0.13281   0.14604   0.19452
  Beta virt. eigenvalues --    0.19877   0.20547   0.20814   0.26934   0.29993
  Beta virt. eigenvalues --    0.31082   0.31525   0.32802   0.32825   0.34016
  Beta virt. eigenvalues --    0.34464   0.38086   0.38316   0.39139   0.39272
  Beta virt. eigenvalues --    0.40663   0.40846   0.44339   0.44361   0.53398
  Beta virt. eigenvalues --    0.59644   0.66409   0.67221   0.70778   0.73672
  Beta virt. eigenvalues --    0.74007   0.80215   0.81424   0.81765   0.81787
  Beta virt. eigenvalues --    0.82105   0.82268   0.85817   0.86975   0.88647
  Beta virt. eigenvalues --    0.92959   0.93339   0.93460   0.97051   0.97532
  Beta virt. eigenvalues --    1.01968   1.02005   1.03139   1.03471   1.07023
  Beta virt. eigenvalues --    1.07137   1.11349   1.11991   1.15515   1.19530
  Beta virt. eigenvalues --    1.21310   1.26780   1.36946   1.39381   1.43442
  Beta virt. eigenvalues --    1.50060   1.50073   1.50384   1.53180   1.57231
  Beta virt. eigenvalues --    1.57873   1.60325   1.69456   1.79556   1.79901
  Beta virt. eigenvalues --    1.95147   1.95564   1.96794   2.05746   2.05988
  Beta virt. eigenvalues --    2.09262   2.53395   2.82218   2.83052   2.91176
  Beta virt. eigenvalues --    3.00334   3.02227   3.04044   3.36244   3.36253
  Beta virt. eigenvalues --    3.40371   3.40984   3.42628   3.42759   3.44746
  Beta virt. eigenvalues --    3.45316   3.51836   3.68920   3.70108   3.70911
  Beta virt. eigenvalues --    3.70973   3.73391   3.73560   3.77519   3.78361
  Beta virt. eigenvalues --    3.86428   3.86797   3.93636   4.02802   4.03458
  Beta virt. eigenvalues --    4.12430   4.16788   4.17219   4.22081   4.47292
  Beta virt. eigenvalues --    4.57647   4.58364   4.60036   4.60578   4.78007
  Beta virt. eigenvalues --    4.82135   5.04677   5.04708   5.12665   5.12789
  Beta virt. eigenvalues --    5.18080   5.18619   5.30065   6.07059   6.21811
  Beta virt. eigenvalues --    6.22489   6.40473  15.96190
          Condensed to atoms (all electrons):
               1          2          3          4          5
     1  C    6.009459   0.335534   0.335538   0.329824   0.070656
     2  H    0.335534   0.278837   0.009573   0.009940  -0.003120
     3  H    0.335538   0.009573   0.278852   0.009942  -0.003118
     4  H    0.329824   0.009940   0.009942   0.279884  -0.003727
     5  H    0.070656  -0.003120  -0.003118  -0.003727   0.970885
          Atomic-Atomic Spin Densities.
               1          2          3          4          5
     1  C    0.874254   0.015249   0.015224   0.013302  -0.001028
     2  H    0.015249  -0.026821   0.000804   0.000700   0.005585
     3  H    0.015224   0.000804  -0.026859   0.000702   0.005581
     4  H    0.013302   0.000700   0.000702  -0.026951   0.007074
     5  H   -0.001028   0.005585   0.005581   0.007074  -0.920008
 Mulliken charges and spin densities:
               1          2
     1  C   -1.081011   0.917001
     2  H    0.369236  -0.004484
     3  H    0.369214  -0.004548
     4  H    0.374137  -0.005174
     5  H   -0.031575  -0.902795
 Sum of Mulliken charges =  -0.00000   0.00000
 Mulliken charges and spin densities with hydrogens summed into heavy atoms:
               1          2
     1  C   -0.000000   0.000000
 Electronic spatial extent (au):  <R**2>=             57.9202
 Charge=             -0.0000 electrons
 Dipole moment (field-independent basis, Debye):
    X=              0.0462    Y=              0.5612    Z=              0.0266  Tot=              0.5638
 Quadrupole moment (field-independent basis, Debye-Ang):
   XX=             -8.6350   YY=            -11.4166   ZZ=             -8.6319
   XY=             -0.0650   XZ=             -0.0021   YZ=             -0.0375
 Traceless Quadrupole moment (field-independent basis, Debye-Ang):
   XX=              0.9262   YY=             -1.8554   ZZ=              0.9292
   XY=             -0.0650   XZ=             -0.0021   YZ=             -0.0375
 Octapole moment (field-independent basis, Debye-Ang**2):
  XXX=              1.2383  YYY=             13.9302  ZZZ=              1.6865  XYY=              0.5437
  XXY=              4.1392  XXZ=             -0.7349  XZZ=              0.4117  YZZ=              4.1363
  YYZ=              0.3135  XYZ=              0.0025
 Hexadecapole moment (field-independent basis, Debye-Ang**3):
 XXXX=            -17.5145 YYYY=            -77.7573 ZZZZ=            -17.0931 XXXY=             -3.1469
 XXXZ=             -0.1807 YYYX=             -3.3171 YYYZ=             -1.9122 ZZZX=             -0.1830
 ZZZY=             -1.8216 XXYY=            -16.0510 XXZZ=             -5.7669 YYZZ=            -15.9675
 XXYZ=             -0.5972 YYXZ=             -0.0722 ZZXY=             -1.0490
 N-N= 1.146989834801D+01 E-N=-1.157166220099D+02  KE= 4.001125141637D+01
                          Isotropic Fermi Contact Couplings
        Atom                 a.u.       MegaHertz       Gauss      10(-4) cm-1
     1  C(13)              0.00401       2.25232       0.80368       0.75129
     2  H(1)              -0.01307     -29.21808     -10.42574      -9.74610
     3  H(1)              -0.01308     -29.22326     -10.42759      -9.74783
     4  H(1)              -0.01368     -30.56716     -10.90712     -10.19611
     5  H(1)              -0.26940    -602.08731    -214.83972    -200.83471
 --------------------------------------------------------
       Center         ----  Spin Dipole Couplings  ----
                      3XX-RR        3YY-RR        3ZZ-RR
 --------------------------------------------------------
     1   Atom       -0.504516      1.008457     -0.503940
     2   Atom       -0.064681     -0.004765      0.069446
     3   Atom        0.035326     -0.004760     -0.030565
     4   Atom        0.037425     -0.007724     -0.029701
     5   Atom       -0.010676      0.021672     -0.010996
 --------------------------------------------------------
                        XY            XZ            YZ
 --------------------------------------------------------
     1   Atom       -0.007137     -0.000540     -0.004118
     2   Atom       -0.001413     -0.000738     -0.006512
     3   Atom       -0.006347     -0.058418      0.002031
     4   Atom        0.005160      0.058240      0.002984
     5   Atom        0.003990      0.000277      0.002300
 --------------------------------------------------------


 ---------------------------------------------------------------------------------
              Anisotropic Spin Dipole Couplings in Principal Axis System
 ---------------------------------------------------------------------------------

       Atom             a.u.   MegaHertz   Gauss  10(-4) cm-1        Axes

              Baa    -0.5049   -67.751   -24.175   -22.599  0.8577  0.0054  0.5142
     1 C(13)  Bbb    -0.5036   -67.580   -24.114   -22.542 -0.5142 -0.0001  0.8577
              Bcc     1.0085   135.331    48.290    45.142 -0.0047  1.0000 -0.0027
 
              Baa    -0.0647   -34.532   -12.322   -11.519  0.9997  0.0243  0.0067
     2 H(1)   Bbb    -0.0053    -2.825    -1.008    -0.942 -0.0248  0.9959  0.0865
              Bcc     0.0700    37.357    13.330    12.461 -0.0045 -0.0867  0.9962
 
              Baa    -0.0647   -34.533   -12.322   -11.519  0.5052  0.0243  0.8626
     3 H(1)   Bbb    -0.0053    -2.823    -1.007    -0.942  0.0626  0.9959 -0.0647
              Bcc     0.0700    37.356    13.330    12.461  0.8607 -0.0867 -0.5017
 
              Baa    -0.0634   -33.805   -12.062   -11.276 -0.5003 -0.0000  0.8658
     4 H(1)   Bbb    -0.0082    -4.360    -1.556    -1.454 -0.0650  0.9972 -0.0375
              Bcc     0.0715    38.165    13.618    12.730  0.8634  0.0750  0.4989
 
              Baa    -0.0112    -5.955    -2.125    -1.987  0.8547 -0.1389  0.5002
     5 H(1)   Bbb    -0.0112    -5.952    -2.124    -1.985 -0.5049  0.0009  0.8632
              Bcc     0.0223    11.908     4.249     3.972  0.1203  0.9903  0.0694
 

 ---------------------------------------------------------------------------------

 DipInt: DoE/N= T T RetVal/Mat= T F Init=T NMatP=  1 IDeriv=0 Min/MaxMlt=  1  1
 Entering OneElI...
 Multipole integrals L=1 to 1 MinM= 0 MaxM= 0.
 Requested accuracy = 0.1000D-12
 PrsmSu:  NPrtUS=   1 ThrOK=F IAlg=1 NPAlg=1 LenDen=           0.
 Prism:   IPart=     0 DynPar=F LinDyn=F Incr=          12.
 PRISM was handed   419323388 working-precision words and  1275 shell-pairs
 IPart=  0 NShTot=        1275 NBatch=          40 AvBLen=        31.9
 PrSmSu:  NxtVal=             13.
 Entering OneElI...
 Calculate overlap and kinetic energy integrals
    NBasis = 155  MinDer = 1  MaxDer = 1
 Requested accuracy = 0.1000D-12
 PrsmSu:  NPrtUS=  32 ThrOK=T IAlg=1 NPAlg=1 LenDen=           0.
 Prism:   IPart=     0 DynPar=F LinDyn=F Incr=           1.
 PRISM was handed    13082634 working-precision words and  1275 shell-pairs
 PRISM was handed    13082634 working-precision words and  1275 shell-pairs
 PRISM was handed    13082634 working-precision words and  1275 shell-pairs
 PRISM was handed    13082634 working-precision words and  1275 shell-pairs
 PRISM was handed    13082634 working-precision words and  1275 shell-pairs
 PRISM was handed    13082634 working-precision words and  1275 shell-pairs
 PRISM was handed    13082634 working-precision words and  1275 shell-pairs
 PRISM was handed    13082634 working-precision words and  1275 shell-pairs
 PRISM was handed    13082634 working-precision words and  1275 shell-pairs
 PRISM was handed    13082634 working-precision words and  1275 shell-pairs
 PRISM was handed    13082634 working-precision words and  1275 shell-pairs
 PRISM was handed    13082634 working-precision words and  1275 shell-pairs
 PRISM was handed    13082634 working-precision words and  1275 shell-pairs
 PRISM was handed    13082634 working-precision words and  1275 shell-pairs
 PRISM was handed    13082634 working-precision words and  1275 shell-pairs
 PRISM was handed    13082634 working-precision words and  1275 shell-pairs
 PRISM was handed    13082634 working-precision words and  1275 shell-pairs
 PRISM was handed    13082634 working-precision words and  1275 shell-pairs
 PRISM was handed    13082634 working-precision words and  1275 shell-pairs
 PRISM was handed    13082634 working-precision words and  1275 shell-pairs
 PRISM was handed    13082634 working-precision words and  1275 shell-pairs
 PRISM was handed    13082634 working-precision words and  1275 shell-pairs
 PRISM was handed    13082634 working-precision words and  1275 shell-pairs
 PRISM was handed    13082634 working-precision words and  1275 shell-pairs
 PRISM was handed    13082634 working-precision words and  1275 shell-pairs
 PRISM was handed    13082634 working-precision words and  1275 shell-pairs
 PRISM was handed    13082634 working-precision words and  1275 shell-pairs
 PRISM was handed    13082634 working-precision words and  1275 shell-pairs
 PRISM was handed    13082634 working-precision words and  1275 shell-pairs
 PRISM was handed    13082634 working-precision words and  1275 shell-pairs
 PRISM was handed    13082634 working-precision words and  1275 shell-pairs
 PRISM was handed    13082634 working-precision words and  1275 shell-pairs
 IPart=  0 NShTot=          66 NBatch=          37 AvBLen=         1.8
 IPart=  5 NShTot=          46 NBatch=          21 AvBLen=         2.2
 IPart= 27 NShTot=          32 NBatch=          11 AvBLen=         2.9
 IPart= 30 NShTot=          29 NBatch=           9 AvBLen=         3.2
 IPart= 28 NShTot=          31 NBatch=          11 AvBLen=         2.8
 IPart= 24 NShTot=          32 NBatch=          11 AvBLen=         2.9
 IPart= 31 NShTot=          29 NBatch=           9 AvBLen=         3.2
 IPart= 23 NShTot=          34 NBatch=          11 AvBLen=         3.1
 IPart= 21 NShTot=          35 NBatch=          12 AvBLen=         2.9
 IPart= 17 NShTot=          35 NBatch=          12 AvBLen=         2.9
 IPart= 16 NShTot=          35 NBatch=          12 AvBLen=         2.9
 IPart=  1 NShTot=          59 NBatch=          31 AvBLen=         1.9
 IPart= 20 NShTot=          35 NBatch=          12 AvBLen=         2.9
 IPart=  3 NShTot=          50 NBatch=          23 AvBLen=         2.2
 IPart= 22 NShTot=          34 NBatch=          11 AvBLen=         3.1
 IPart= 18 NShTot=          35 NBatch=          12 AvBLen=         2.9
 IPart= 15 NShTot=          36 NBatch=          13 AvBLen=         2.8
 IPart= 26 NShTot=          32 NBatch=          11 AvBLen=         2.9
 IPart=  7 NShTot=          46 NBatch=          21 AvBLen=         2.2
 IPart=  9 NShTot=          45 NBatch=          20 AvBLen=         2.3
 IPart= 29 NShTot=          31 NBatch=          11 AvBLen=         2.8
 IPart= 11 NShTot=          41 NBatch=          17 AvBLen=         2.4
 IPart=  2 NShTot=          55 NBatch=          28 AvBLen=         2.0
 IPart=  4 NShTot=          49 NBatch=          22 AvBLen=         2.2
 IPart= 10 NShTot=          45 NBatch=          20 AvBLen=         2.3
 IPart=  8 NShTot=          45 NBatch=          20 AvBLen=         2.3
 IPart= 14 NShTot=          40 NBatch=          17 AvBLen=         2.4
 IPart= 13 NShTot=          40 NBatch=          17 AvBLen=         2.4
 IPart= 25 NShTot=          32 NBatch=          11 AvBLen=         2.9
 IPart=  6 NShTot=          46 NBatch=          21 AvBLen=         2.2
 IPart= 19 NShTot=          35 NBatch=          12 AvBLen=         2.9
 IPart= 12 NShTot=          40 NBatch=          17 AvBLen=         2.4
 PrSmSu:  NxtVal=             33.
 Entering OneElI...
 Calculate potential energy integrals
    NBasis = 155  MinDer = 1  MaxDer = 1
 Requested accuracy = 0.1000D-12
 PrsmSu:  NPrtUS=  32 ThrOK=T IAlg=1 NPAlg=1 LenDen=           0.
 PRISM was handed    13083902 working-precision words and  1275 shell-pairs
 PRISM was handed    13083902 working-precision words and  1275 shell-pairs
 PRISM was handed    13083902 working-precision words and  1275 shell-pairs
 PRISM was handed    13083902 working-precision words and  1275 shell-pairs
 PRISM was handed    13083902 working-precision words and  1275 shell-pairs
 PRISM was handed    13083902 working-precision words and  1275 shell-pairs
 PRISM was handed    13083902 working-precision words and  1275 shell-pairs
 PRISM was handed    13083902 working-precision words and  1275 shell-pairs
 PRISM was handed    13083902 working-precision words and  1275 shell-pairs
 PRISM was handed    13083902 working-precision words and  1275 shell-pairs
 Prism:   IPart=     0 DynPar=F LinDyn=F Incr=           1.
 PRISM was handed    13083902 working-precision words and  1275 shell-pairs
 PRISM was handed    13083902 working-precision words and  1275 shell-pairs
 PRISM was handed    13083902 working-precision words and  1275 shell-pairs
 PRISM was handed    13083902 working-precision words and  1275 shell-pairs
 PRISM was handed    13083902 working-precision words and  1275 shell-pairs
 PRISM was handed    13083902 working-precision words and  1275 shell-pairs
 PRISM was handed    13083902 working-precision words and  1275 shell-pairs
 PRISM was handed    13083902 working-precision words and  1275 shell-pairs
 PRISM was handed    13083902 working-precision words and  1275 shell-pairs
 PRISM was handed    13083902 working-precision words and  1275 shell-pairs
 PRISM was handed    13083902 working-precision words and  1275 shell-pairs
 PRISM was handed    13083902 working-precision words and  1275 shell-pairs
 PRISM was handed    13083902 working-precision words and  1275 shell-pairs
 PRISM was handed    13083902 working-precision words and  1275 shell-pairs
 PRISM was handed    13083902 working-precision words and  1275 shell-pairs
 PRISM was handed    13083902 working-precision words and  1275 shell-pairs
 PRISM was handed    13083902 working-precision words and  1275 shell-pairs
 PRISM was handed    13083902 working-precision words and  1275 shell-pairs
 PRISM was handed    13083902 working-precision words and  1275 shell-pairs
 PRISM was handed    13083902 working-precision words and  1275 shell-pairs
 PRISM was handed    13083902 working-precision words and  1275 shell-pairs
 PRISM was handed    13083902 working-precision words and  1275 shell-pairs
 IPart= 19 NShTot=         175 NBatch=          35 AvBLen=         5.0
 IPart= 12 NShTot=         200 NBatch=          40 AvBLen=         5.0
 IPart= 25 NShTot=         165 NBatch=          33 AvBLen=         5.0
 IPart= 17 NShTot=         175 NBatch=          35 AvBLen=         5.0
 IPart= 21 NShTot=         175 NBatch=          35 AvBLen=         5.0
 IPart= 31 NShTot=         145 NBatch=          29 AvBLen=         5.0
 IPart= 11 NShTot=         200 NBatch=          40 AvBLen=         5.0
 IPart= 28 NShTot=         160 NBatch=          32 AvBLen=         5.0
 IPart=  7 NShTot=         230 NBatch=          46 AvBLen=         5.0
 IPart=  8 NShTot=         215 NBatch=          43 AvBLen=         5.0
 IPart= 29 NShTot=         155 NBatch=          31 AvBLen=         5.0
 IPart= 24 NShTot=         165 NBatch=          33 AvBLen=         5.0
 IPart=  4 NShTot=         245 NBatch=          49 AvBLen=         5.0
 IPart= 22 NShTot=         170 NBatch=          34 AvBLen=         5.0
 IPart= 20 NShTot=         175 NBatch=          35 AvBLen=         5.0
 IPart= 14 NShTot=         185 NBatch=          37 AvBLen=         5.0
 IPart= 15 NShTot=         175 NBatch=          35 AvBLen=         5.0
 IPart= 10 NShTot=         210 NBatch=          42 AvBLen=         5.0
 IPart=  2 NShTot=         280 NBatch=          56 AvBLen=         5.0
 IPart= 18 NShTot=         175 NBatch=          35 AvBLen=         5.0
 IPart=  1 NShTot=         300 NBatch=          60 AvBLen=         5.0
 IPart= 16 NShTot=         175 NBatch=          35 AvBLen=         5.0
 IPart=  5 NShTot=         230 NBatch=          46 AvBLen=         5.0
 IPart= 26 NShTot=         160 NBatch=          32 AvBLen=         5.0
 IPart= 30 NShTot=         145 NBatch=          29 AvBLen=         5.0
 IPart=  6 NShTot=         230 NBatch=          46 AvBLen=         5.0
 IPart= 23 NShTot=         170 NBatch=          34 AvBLen=         5.0
 IPart= 13 NShTot=         200 NBatch=          40 AvBLen=         5.0
 IPart=  0 NShTot=         355 NBatch=          71 AvBLen=         5.0
 IPart= 27 NShTot=         160 NBatch=          32 AvBLen=         5.0
 IPart=  3 NShTot=         260 NBatch=          52 AvBLen=         5.0
 IPart=  9 NShTot=         215 NBatch=          43 AvBLen=         5.0
 PrSmSu:  NxtVal=             33.
 l701 out
 I=    0 X=   1.818560955330D-02 Y=   2.208107984915D-01 Z=   1.047483106003D-02
 I=    1 X=   2.970978943588D-02 Y=   4.149228661449D-01 Z=   1.751926389522D-02
 I=    2 X=   9.938512089381D-03 Y=   3.578186662667D-02 Z=   2.336775630792D+00
 I=    3 X=   2.029198573525D+00 Y=   3.575886216327D-02 Z=  -1.158853448187D+00
 I=    4 X=  -2.009486386215D+00 Y=   3.192477750909D-02 Z=  -1.161225759317D+00
 I=    5 X=  -5.936048883505D-02 Y=  -5.183883724439D-01 Z=  -3.421568718299D-02
 ICntrl=      2127.
 Calling FoFJK, ICntrl=      2127 FMM=F ISym2X=0 I1Cent= 0 IOpClX= 1 NMat=1 NMatS=1 NMatT=0.
 FoFJK:  IHMeth= 1 ICntrl=    2127 DoSepK=T KAlg= 0 I1Cent=   0 FoldK=F
 IRaf=         1 NMat=   1 IRICut=       1 DoRegI=T DoRafI=F ISym2E= 0.
 FoFCou: FMM=F IPFlag=           0 FMFlag=      100000 FMFlg1=         800
         NFxFlg=           0 DoJE=F BraDBF=F KetDBF=F FulRan=T
         wScrn=  0.000000 ICntrl=    2527 IOpCl=  0 I1Cent=           0 NGrid=           0
         NMat0=    1 NMatS0=      1 NMatT0=    0 NMatD0=    1 NMtDS0=    0 NMtDT0=    0
 Symmetry not used in FoFCou.
 FoFCou:  KetSym=F NOpSet=  1 NOpAb=1 NOp=  1.
 FoFCou:  CnvScl= 1.00D+00 Thresh= 1.00D-10 IAcrcy=      10.
 PrismS was handed   419298330 working-precision words and  1275 shell-pairs
 FoFCou: LinMIO=F DoNuc=F BraDBF=F KetDBF=F HaveP=T PDBF=F HaveZ=T HaveW=F
         NIJTC =      10 NIJTAt=       0 NIJTCD=       0 NIJTT =      10
         IJTBeg=       1 IJTEnd=      10 KLTBeg=       1 KLTEnd=      10
         IPTBeg=       1 IPTEnd=      10 IPTBCv=       1 IPTECv=      10
         IZTBeg=       1 IZTEnd=      10 IZTBCv=       1 IZTECv=      10
         IWTBeg=      11 IWTEnd=      10 IWTBCv=      11 IWTECv=      10
         INTBeg=       1 INTEnd=       0 IFTBCv=       1 IFTECv=      10
 NCel replicated for PrismC:     1
 CoulSu:  IncDef=  1024 NBBP=         813450 NTPThr=   100 NPartT=   32 Incr=         254 LDynOK=F.
 CoulSu:  NPrtUS=  32 ThrOK=T IAlg=1 NPAlg=1 LenDen=           0 LWGrdD=           0 DoCopy=F.
 Enter PrismC: JobTyp=21 DoJE=F Cont=F.
 Enter PrismC: JobTyp=21 DoJE=F Cont=F.
 Enter PrismC: JobTyp=21 DoJE=F Cont=F.
 PrismC:  IPart=     0 DynPar=T LinDyn=F Incr=         254 UseFst=F UseS4=T IGathr=2.
 PrismC was handed    13082831 working-precision words and  1275 shell-pairs
 Enter PrismC: JobTyp=21 DoJE=F Cont=F.
 Enter PrismC: JobTyp=21 DoJE=F Cont=F.
 Enter PrismC: JobTyp=21 DoJE=F Cont=F.
 Enter PrismC: JobTyp=21 DoJE=F Cont=F.
 Enter PrismC: JobTyp=21 DoJE=F Cont=F.
 Enter PrismC: JobTyp=21 DoJE=F Cont=F.
 Enter PrismC: JobTyp=21 DoJE=F Cont=F.
 Enter PrismC: JobTyp=21 DoJE=F Cont=F.
 Enter PrismC: JobTyp=21 DoJE=F Cont=F.
 Enter PrismC: JobTyp=21 DoJE=F Cont=F.
 Enter PrismC: JobTyp=21 DoJE=F Cont=F.
 Enter PrismC: JobTyp=21 DoJE=F Cont=F.
 Enter PrismC: JobTyp=21 DoJE=F Cont=F.
 Enter PrismC: JobTyp=21 DoJE=F Cont=F.
 Enter PrismC: JobTyp=21 DoJE=F Cont=F.
 Enter PrismC: JobTyp=21 DoJE=F Cont=F.
 Enter PrismC: JobTyp=21 DoJE=F Cont=F.
 Enter PrismC: JobTyp=21 DoJE=F Cont=F.
 PrismC was handed    13082831 working-precision words and  1275 shell-pairs
 Enter PrismC: JobTyp=21 DoJE=F Cont=F.
 Enter PrismC: JobTyp=21 DoJE=F Cont=F.
 PrismC was handed    13082831 working-precision words and  1275 shell-pairs
 Enter PrismC: JobTyp=21 DoJE=F Cont=F.
 Enter PrismC: JobTyp=21 DoJE=F Cont=F.
 Enter PrismC: JobTyp=21 DoJE=F Cont=F.
 PrismC was handed    13082831 working-precision words and  1275 shell-pairs
 Enter PrismC: JobTyp=21 DoJE=F Cont=F.
 Enter PrismC: JobTyp=21 DoJE=F Cont=F.
 Enter PrismC: JobTyp=21 DoJE=F Cont=F.
 Enter PrismC: JobTyp=21 DoJE=F Cont=F.
 Enter PrismC: JobTyp=21 DoJE=F Cont=F.
 PrismC was handed    13082831 working-precision words and  1275 shell-pairs
 PrismC was handed    13082831 working-precision words and  1275 shell-pairs
 Enter PrismC: JobTyp=21 DoJE=F Cont=F.
 PrismC was handed    13082831 working-precision words and  1275 shell-pairs
 PrismC was handed    13082831 working-precision words and  1275 shell-pairs
 PrismC was handed    13082831 working-precision words and  1275 shell-pairs
 PrismC was handed    13082831 working-precision words and  1275 shell-pairs
 PrismC was handed    13082831 working-precision words and  1275 shell-pairs
 PrismC was handed    13082831 working-precision words and  1275 shell-pairs
 PrismC was handed    13082831 working-precision words and  1275 shell-pairs
 PrismC was handed    13082831 working-precision words and  1275 shell-pairs
 PrismC was handed    13082831 working-precision words and  1275 shell-pairs
 PrismC was handed    13082831 working-precision words and  1275 shell-pairs
 PrismC was handed    13082831 working-precision words and  1275 shell-pairs
 PrismC was handed    13082831 working-precision words and  1275 shell-pairs
 PrismC was handed    13082831 working-precision words and  1275 shell-pairs
 PrismC was handed    13082831 working-precision words and  1275 shell-pairs
 PrismC was handed    13082831 working-precision words and  1275 shell-pairs
 PrismC was handed    13082831 working-precision words and  1275 shell-pairs
 PrismC was handed    13082831 working-precision words and  1275 shell-pairs
 PrismC was handed    13082831 working-precision words and  1275 shell-pairs
 PrismC was handed    13082831 working-precision words and  1275 shell-pairs
 PrismC was handed    13082831 working-precision words and  1275 shell-pairs
 PrismC was handed    13082831 working-precision words and  1275 shell-pairs
 PrismC was handed    13082831 working-precision words and  1275 shell-pairs
 PrismC was handed    13082831 working-precision words and  1275 shell-pairs
 PrismC was handed    13082831 working-precision words and  1275 shell-pairs
 PrismC was handed    13082831 working-precision words and  1275 shell-pairs
 PrismC was handed    13082831 working-precision words and  1275 shell-pairs
 IPart=  3 NShTot=       28959 NShNF=       28959 NShFF=           0 NBatch=         297 AvBLen=        97.5
 IPart= 24 NShTot=       31268 NShNF=       31268 NShFF=           0 NBatch=         287 AvBLen=       108.9
 IPart= 17 NShTot=       19449 NShNF=       19449 NShFF=           0 NBatch=         116 AvBLen=       167.7
 IPart=  6 NShTot=       27128 NShNF=       27128 NShFF=           0 NBatch=         303 AvBLen=        89.5
 IPart= 15 NShTot=       26995 NShNF=       26995 NShFF=           0 NBatch=         310 AvBLen=        87.1
 IPart= 20 NShTot=       24814 NShNF=       24814 NShFF=           0 NBatch=         296 AvBLen=        83.8
 IPart= 13 NShTot=       30517 NShNF=       30517 NShFF=           0 NBatch=         312 AvBLen=        97.8
 IPart=  7 NShTot=       26406 NShNF=       26406 NShFF=           0 NBatch=         299 AvBLen=        88.3
 IPart=  4 NShTot=       14473 NShNF=       14473 NShFF=           0 NBatch=         123 AvBLen=       117.7
 IPart= 22 NShTot=       30055 NShNF=       30055 NShFF=           0 NBatch=         273 AvBLen=       110.1
 IPart= 12 NShTot=       30074 NShNF=       30074 NShFF=           0 NBatch=         305 AvBLen=        98.6
 IPart= 14 NShTot=       29643 NShNF=       29643 NShFF=           0 NBatch=         295 AvBLen=       100.5
 IPart= 23 NShTot=       25637 NShNF=       25637 NShFF=           0 NBatch=         282 AvBLen=        90.9
 IPart=  5 NShTot=       28317 NShNF=       28317 NShFF=           0 NBatch=         301 AvBLen=        94.1
 IPart= 25 NShTot=       30787 NShNF=       30787 NShFF=           0 NBatch=         302 AvBLen=       101.9
 IPart= 27 NShTot=       29817 NShNF=       29817 NShFF=           0 NBatch=         306 AvBLen=        97.4
 IPart= 26 NShTot=       26439 NShNF=       26439 NShFF=           0 NBatch=         250 AvBLen=       105.8
 IPart= 18 NShTot=       30081 NShNF=       30081 NShFF=           0 NBatch=         301 AvBLen=        99.9
 IPart=  1 NShTot=       28063 NShNF=       28063 NShFF=           0 NBatch=         282 AvBLen=        99.5
 IPart= 16 NShTot=       25821 NShNF=       25821 NShFF=           0 NBatch=         296 AvBLen=        87.2
 IPart=  9 NShTot=       25548 NShNF=       25548 NShFF=           0 NBatch=         219 AvBLen=       116.7
 IPart= 30 NShTot=       32942 NShNF=       32942 NShFF=           0 NBatch=         313 AvBLen=       105.2
 IPart=  0 NShTot=       24503 NShNF=       24503 NShFF=           0 NBatch=         280 AvBLen=        87.5
 IPart= 28 NShTot=       28324 NShNF=       28324 NShFF=           0 NBatch=         265 AvBLen=       106.9
 IPart= 11 NShTot=       28123 NShNF=       28123 NShFF=           0 NBatch=         281 AvBLen=       100.1
 IPart=  2 NShTot=       31917 NShNF=       31917 NShFF=           0 NBatch=         282 AvBLen=       113.2
 IPart=  8 NShTot=       28400 NShNF=       28400 NShFF=           0 NBatch=         319 AvBLen=        89.0
 IPart= 29 NShTot=       30315 NShNF=       30315 NShFF=           0 NBatch=         315 AvBLen=        96.2
 IPart= 19 NShTot=        4810 NShNF=        4810 NShFF=           0 NBatch=          67 AvBLen=        71.8
 IPart= 21 NShTot=        6738 NShNF=        6738 NShFF=           0 NBatch=          63 AvBLen=       107.0
 IPart= 10 NShTot=        6915 NShNF=        6915 NShFF=           0 NBatch=          59 AvBLen=       117.2
 IPart= 31 NShTot=         691 NShNF=         691 NShFF=           0 NBatch=          40 AvBLen=        17.3
 CoulSu:  NxtVal=         897129.
 FoFCou: FMM=F IPFlag=           0 FMFlag=      100000 FMFlg1=         800
         NFxFlg=           0 DoJE=F BraDBF=F KetDBF=F FulRan=T
         wScrn=  0.000000 ICntrl=    2127 IOpCl=  1 I1Cent=           0 NGrid=           0
         NMat0=    1 NMatS0=      0 NMatT0=    1 NMatD0=    1 NMtDS0=    0 NMtDT0=    0
         CW=    0.222036    0.777964
         WU=    0.000000   12.500000
 Symmetry not used in FoFCou.
 FoFCou:  KetSym=F NOpSet=  1 NOpAb=1 NOp=  1.
 FoFCou:  CnvScl= 1.00D+00 Thresh= 1.00D-10 IAcrcy=      10.
 PrismS was handed   419297090 working-precision words and  1275 shell-pairs
 FoFCou: LinMIO=F DoNuc=F BraDBF=F KetDBF=F HaveP=T PDBF=F HaveZ=T HaveW=F
         NIJTC =      10 NIJTAt=       0 NIJTCD=       0 NIJTT =      10
         IJTBeg=       1 IJTEnd=      10 KLTBeg=       1 KLTEnd=      10
         IPTBeg=       1 IPTEnd=      10 IPTBCv=       1 IPTECv=      10
         IZTBeg=       1 IZTEnd=      10 IZTBCv=       1 IZTECv=      10
         IWTBeg=      11 IWTEnd=      10 IWTBCv=      11 IWTECv=      10
         INTBeg=       1 INTEnd=       0 IFTBCv=       1 IFTECv=      10
 NCel replicated for PrismC:     1
 CoulSu:  IncDef=  1024 NBBP=         813450 NTPThr=   100 NPartT=   32 Incr=         254 LDynOK=F.
 CoulSu:  NPrtUS=  32 ThrOK=T IAlg=1 NPAlg=1 LenDen=           0 LWGrdD=           0 DoCopy=F.
 Enter PrismC: JobTyp=21 DoJE=F Cont=F.
 Linear combination for Coulomb/exchange, wScrn=  0.000000
 Enter PrismC: JobTyp=21 DoJE=F Cont=F.
 Enter PrismC: JobTyp=21 DoJE=F Cont=F.
 Linear combination for Coulomb/exchange, wScrn=  0.000000
 CW=    0.222036    0.777964
 WU=    0.000000   12.500000
 Enter PrismC: JobTyp=21 DoJE=F Cont=F.
 Linear combination for Coulomb/exchange, wScrn=  0.000000
 CW=    0.222036    0.777964
 WU=    0.000000   12.500000
 Enter PrismC: JobTyp=21 DoJE=F Cont=F.
 Linear combination for Coulomb/exchange, wScrn=  0.000000
 CW=    0.222036    0.777964
 WU=    0.000000   12.500000
 Enter PrismC: JobTyp=21 DoJE=F Cont=F.
 Linear combination for Coulomb/exchange, wScrn=  0.000000
 CW=    0.222036    0.777964
 WU=    0.000000   12.500000
 Enter PrismC: JobTyp=21 DoJE=F Cont=F.
 Linear combination for Coulomb/exchange, wScrn=  0.000000
 CW=    0.222036    0.777964
 WU=    0.000000   12.500000
 Enter PrismC: JobTyp=21 DoJE=F Cont=F.
 Linear combination for Coulomb/exchange, wScrn=  0.000000
 CW=    0.222036    0.777964
 WU=    0.000000   12.500000
 Enter PrismC: JobTyp=21 DoJE=F Cont=F.
 Linear combination for Coulomb/exchange, wScrn=  0.000000
 CW=    0.222036    0.777964
 WU=    0.000000   12.500000
 Enter PrismC: JobTyp=21 DoJE=F Cont=F.
 Linear combination for Coulomb/exchange, wScrn=  0.000000
 CW=    0.222036    0.777964
 WU=    0.000000   12.500000
 Enter PrismC: JobTyp=21 DoJE=F Cont=F.
 Linear combination for Coulomb/exchange, wScrn=  0.000000
 CW=    0.222036    0.777964
 WU=    0.000000   12.500000
 Enter PrismC: JobTyp=21 DoJE=F Cont=F.
 Linear combination for Coulomb/exchange, wScrn=  0.000000
 CW=    0.222036    0.777964
 WU=    0.000000   12.500000
 Enter PrismC: JobTyp=21 DoJE=F Cont=F.
 Linear combination for Coulomb/exchange, wScrn=  0.000000
 CW=    0.222036    0.777964
 WU=    0.000000   12.500000
 Enter PrismC: JobTyp=21 DoJE=F Cont=F.
 Linear combination for Coulomb/exchange, wScrn=  0.000000
 CW=    0.222036    0.777964
 WU=    0.000000   12.500000
 Enter PrismC: JobTyp=21 DoJE=F Cont=F.
 Linear combination for Coulomb/exchange, wScrn=  0.000000
 CW=    0.222036    0.777964
 WU=    0.000000   12.500000
 Enter PrismC: JobTyp=21 DoJE=F Cont=F.
 Linear combination for Coulomb/exchange, wScrn=  0.000000
 CW=    0.222036    0.777964
 WU=    0.000000   12.500000
 Enter PrismC: JobTyp=21 DoJE=F Cont=F.
 Linear combination for Coulomb/exchange, wScrn=  0.000000
 CW=    0.222036    0.777964
 WU=    0.000000   12.500000
 Enter PrismC: JobTyp=21 DoJE=F Cont=F.
 Linear combination for Coulomb/exchange, wScrn=  0.000000
 CW=    0.222036    0.777964
 WU=    0.000000   12.500000
 PrismC was handed    13082792 working-precision words and  1275 shell-pairs
 Enter PrismC: JobTyp=21 DoJE=F Cont=F.
 Linear combination for Coulomb/exchange, wScrn=  0.000000
 CW=    0.222036    0.777964
 WU=    0.000000   12.500000
 Enter PrismC: JobTyp=21 DoJE=F Cont=F.
 Linear combination for Coulomb/exchange, wScrn=  0.000000
 CW=    0.222036    0.777964
 WU=    0.000000   12.500000
 PrismC was handed    13082792 working-precision words and  1275 shell-pairs
 PrismC was handed    13082792 working-precision words and  1275 shell-pairs
 PrismC was handed    13082792 working-precision words and  1275 shell-pairs
 Enter PrismC: JobTyp=21 DoJE=F Cont=F.
 Linear combination for Coulomb/exchange, wScrn=  0.000000
 CW=    0.222036    0.777964
 WU=    0.000000   12.500000
 Enter PrismC: JobTyp=21 DoJE=F Cont=F.
 Linear combination for Coulomb/exchange, wScrn=  0.000000
 CW=    0.222036    0.777964
 WU=    0.000000   12.500000
 Enter PrismC: JobTyp=21 DoJE=F Cont=F.
 Linear combination for Coulomb/exchange, wScrn=  0.000000
 CW=    0.222036    0.777964
 WU=    0.000000   12.500000
 Enter PrismC: JobTyp=21 DoJE=F Cont=F.
 Linear combination for Coulomb/exchange, wScrn=  0.000000
 CW=    0.222036    0.777964
 WU=    0.000000   12.500000
 Linear combination for Coulomb/exchange, wScrn=  0.000000
 CW=    0.222036    0.777964
 WU=    0.000000   12.500000
 Enter PrismC: JobTyp=21 DoJE=F Cont=F.
 Linear combination for Coulomb/exchange, wScrn=  0.000000
 CW=    0.222036    0.777964
 WU=    0.000000   12.500000
 PrismC was handed    13082792 working-precision words and  1275 shell-pairs
 PrismC was handed    13082792 working-precision words and  1275 shell-pairs
 PrismC was handed    13082792 working-precision words and  1275 shell-pairs
 Enter PrismC: JobTyp=21 DoJE=F Cont=F.
 Linear combination for Coulomb/exchange, wScrn=  0.000000
 CW=    0.222036    0.777964
 WU=    0.000000   12.500000
 PrismC was handed    13082792 working-precision words and  1275 shell-pairs
 PrismC was handed    13082792 working-precision words and  1275 shell-pairs
 Enter PrismC: JobTyp=21 DoJE=F Cont=F.
 Linear combination for Coulomb/exchange, wScrn=  0.000000
 CW=    0.222036    0.777964
 WU=    0.000000   12.500000
 Enter PrismC: JobTyp=21 DoJE=F Cont=F.
 Linear combination for Coulomb/exchange, wScrn=  0.000000
 CW=    0.222036    0.777964
 WU=    0.000000   12.500000
 Enter PrismC: JobTyp=21 DoJE=F Cont=F.
 Linear combination for Coulomb/exchange, wScrn=  0.000000
 CW=    0.222036    0.777964
 WU=    0.000000   12.500000
 Enter PrismC: JobTyp=21 DoJE=F Cont=F.
 Linear combination for Coulomb/exchange, wScrn=  0.000000
 CW=    0.222036    0.777964
 WU=    0.000000   12.500000
 PrismC was handed    13082792 working-precision words and  1275 shell-pairs
 Enter PrismC: JobTyp=21 DoJE=F Cont=F.
 Linear combination for Coulomb/exchange, wScrn=  0.000000
 CW=    0.222036    0.777964
 WU=    0.000000   12.500000
 PrismC was handed    13082792 working-precision words and  1275 shell-pairs
 PrismC was handed    13082792 working-precision words and  1275 shell-pairs
 PrismC was handed    13082792 working-precision words and  1275 shell-pairs
 PrismC was handed    13082792 working-precision words and  1275 shell-pairs
 PrismC was handed    13082792 working-precision words and  1275 shell-pairs
 PrismC was handed    13082792 working-precision words and  1275 shell-pairs
 PrismC was handed    13082792 working-precision words and  1275 shell-pairs
 PrismC was handed    13082792 working-precision words and  1275 shell-pairs
 PrismC was handed    13082792 working-precision words and  1275 shell-pairs
 PrismC was handed    13082792 working-precision words and  1275 shell-pairs
 PrismC was handed    13082792 working-precision words and  1275 shell-pairs
 PrismC was handed    13082792 working-precision words and  1275 shell-pairs
 PrismC was handed    13082792 working-precision words and  1275 shell-pairs
 PrismC was handed    13082792 working-precision words and  1275 shell-pairs
 PrismC was handed    13082792 working-precision words and  1275 shell-pairs
 PrismC was handed    13082792 working-precision words and  1275 shell-pairs
 PrismC was handed    13082792 working-precision words and  1275 shell-pairs
 PrismC was handed    13082792 working-precision words and  1275 shell-pairs
 PrismC was handed    13082792 working-precision words and  1275 shell-pairs
 CW=    0.222036    0.777964
 WU=    0.000000   12.500000
 PrismC:  IPart=     0 DynPar=T LinDyn=F Incr=         254 UseFst=F UseS4=T IGathr=2.
 PrismC was handed    13082792 working-precision words and  1275 shell-pairs
 PrismC was handed    13082792 working-precision words and  1275 shell-pairs
 Enter PrismC: JobTyp=21 DoJE=F Cont=F.
 Linear combination for Coulomb/exchange, wScrn=  0.000000
 CW=    0.222036    0.777964
 WU=    0.000000   12.500000
 PrismC was handed    13082792 working-precision words and  1275 shell-pairs
 IPart= 15 NShTot=       28858 NShNF=       28858 NShFF=           0 NBatch=         311 AvBLen=        92.8
 IPart=  1 NShTot=       29565 NShNF=       29565 NShFF=           0 NBatch=         382 AvBLen=        77.4
 IPart= 30 NShTot=       26759 NShNF=       26759 NShFF=           0 NBatch=         263 AvBLen=       101.7
 IPart= 10 NShTot=       29356 NShNF=       29356 NShFF=           0 NBatch=         351 AvBLen=        83.6
 IPart= 27 NShTot=       31419 NShNF=       31419 NShFF=           0 NBatch=         309 AvBLen=       101.7
 IPart= 19 NShTot=       32293 NShNF=       32293 NShFF=           0 NBatch=         372 AvBLen=        86.8
 IPart= 21 NShTot=       29107 NShNF=       29107 NShFF=           0 NBatch=         304 AvBLen=        95.7
 IPart= 12 NShTot=       31356 NShNF=       31356 NShFF=           0 NBatch=         392 AvBLen=        80.0
 IPart=  2 NShTot=       25879 NShNF=       25879 NShFF=           0 NBatch=         328 AvBLen=        78.9
 IPart= 23 NShTot=       27646 NShNF=       27646 NShFF=           0 NBatch=         374 AvBLen=        73.9
 IPart= 29 NShTot=        2737 NShNF=        2737 NShFF=           0 NBatch=          57 AvBLen=        48.0
 IPart= 20 NShTot=       30394 NShNF=       30394 NShFF=           0 NBatch=         372 AvBLen=        81.7
 IPart= 14 NShTot=       29383 NShNF=       29383 NShFF=           0 NBatch=         315 AvBLen=        93.3
 IPart= 18 NShTot=       23036 NShNF=       23036 NShFF=           0 NBatch=         316 AvBLen=        72.9
 IPart= 25 NShTot=       26440 NShNF=       26440 NShFF=           0 NBatch=         324 AvBLen=        81.6
 IPart= 13 NShTot=       27191 NShNF=       27191 NShFF=           0 NBatch=         316 AvBLen=        86.0
 IPart=  6 NShTot=       29592 NShNF=       29592 NShFF=           0 NBatch=         325 AvBLen=        91.1
 IPart=  8 NShTot=       27058 NShNF=       27058 NShFF=           0 NBatch=         309 AvBLen=        87.6
 IPart= 31 NShTot=       27674 NShNF=       27674 NShFF=           0 NBatch=         366 AvBLen=        75.6
 IPart= 16 NShTot=       25776 NShNF=       25776 NShFF=           0 NBatch=         352 AvBLen=        73.2
 IPart=  5 NShTot=       26385 NShNF=       26385 NShFF=           0 NBatch=         308 AvBLen=        85.7
 IPart= 26 NShTot=       30495 NShNF=       30495 NShFF=           0 NBatch=         373 AvBLen=        81.8
 IPart=  3 NShTot=       22590 NShNF=       22590 NShFF=           0 NBatch=         321 AvBLen=        70.4
 IPart= 11 NShTot=       32796 NShNF=       32796 NShFF=           0 NBatch=         381 AvBLen=        86.1
 IPart=  4 NShTot=       30122 NShNF=       30122 NShFF=           0 NBatch=         376 AvBLen=        80.1
 IPart=  9 NShTot=       29684 NShNF=       29684 NShFF=           0 NBatch=         384 AvBLen=        77.3
 IPart= 17 NShTot=       29344 NShNF=       29344 NShFF=           0 NBatch=         299 AvBLen=        98.1
 IPart= 24 NShTot=       30542 NShNF=       30542 NShFF=           0 NBatch=         348 AvBLen=        87.8
 IPart=  0 NShTot=        3861 NShNF=        3861 NShFF=           0 NBatch=          69 AvBLen=        56.0
 IPart=  7 NShTot=        5397 NShNF=        5397 NShFF=           0 NBatch=          79 AvBLen=        68.3
 IPart= 22 NShTot=        8494 NShNF=        8494 NShFF=           0 NBatch=          77 AvBLen=       110.3
 IPart= 28 NShTot=        2785 NShNF=        2785 NShFF=           0 NBatch=          65 AvBLen=        42.8
 CoulSu:  NxtVal=         897129.
 ReadGW:  IGet=0 IStart=           1 Next=           1 LGW=           0.
 Remaining memory in FofDFT      399.95 Mw
 CkSvGd:  ISavGI=        -1 IRadAn=       5 IRASav=       5 ISavGd=        -1.
 CalDSu:  NPrtUS=  32 ThrOK=T IAlg=1 NPAlg=2 DoDPD=T LenP=       12090 LenD1P=             0.
 IPart=  0 IRanGd=          0 ScrnBf=T ScrnGd=T RCrit=4.00D+00 DoMicB=T.
 IPart= 27         1594 of         1660 points in       2 batches and        4 microbatches, Max-NSigAt=       5 Max-NSgAt2=       5
 IPart=  1         3207 of         3336 points in       3 batches and        8 microbatches, Max-NSigAt=       5 Max-NSgAt2=       5
 IPart= 30         4101 of         4670 points in       6 batches and       10 microbatches, Max-NSigAt=       5 Max-NSgAt2=       5
 IPart= 10         3484 of         3940 points in       4 batches and       30 microbatches, Max-NSigAt=       5 Max-NSgAt2=       5
 IPart= 22         3500 of         3764 points in       4 batches and       26 microbatches, Max-NSigAt=       5 Max-NSgAt2=       5
 IPart= 21         3403 of         3596 points in       4 batches and       29 microbatches, Max-NSigAt=       5 Max-NSgAt2=       5
 IPart= 23         2894 of         2992 points in       3 batches and       17 microbatches, Max-NSigAt=       5 Max-NSgAt2=       5
 IPart= 13         2848 of         2964 points in       3 batches and       21 microbatches, Max-NSigAt=       5 Max-NSgAt2=       5
 IPart=  6         2870 of         2964 points in       3 batches and       13 microbatches, Max-NSigAt=       5 Max-NSgAt2=       5
 IPart= 18         2821 of         2948 points in       3 batches and       23 microbatches, Max-NSigAt=       5 Max-NSgAt2=       5
 IPart= 14         3871 of         4132 points in       4 batches and       30 microbatches, Max-NSigAt=       5 Max-NSgAt2=       5
 IPart=  9         3188 of         3294 points in       2 batches and       11 microbatches, Max-NSigAt=       5 Max-NSgAt2=       5
 IPart=  4         3324 of         3596 points in       4 batches and       38 microbatches, Max-NSigAt=       5 Max-NSgAt2=       5
 IPart= 15         3807 of         4396 points in       6 batches and       55 microbatches, Max-NSigAt=       5 Max-NSgAt2=       5
 IPart=  3         3709 of         4228 points in       6 batches and       61 microbatches, Max-NSigAt=       5 Max-NSgAt2=       5
 IPart=  2         3843 of         4200 points in       5 batches and       27 microbatches, Max-NSigAt=       5 Max-NSgAt2=       5
 IPart= 25         3969 of         4172 points in       4 batches and       10 microbatches, Max-NSigAt=       5 Max-NSgAt2=       5
 IPart=  5         4207 of         4426 points in       4 batches and       12 microbatches, Max-NSigAt=       5 Max-NSgAt2=       5
 IPart= 28         3449 of         3568 points in       3 batches and       12 microbatches, Max-NSigAt=       5 Max-NSgAt2=       5
 IPart=  0         3688 of         3760 points in       3 batches and       11 microbatches, Max-NSigAt=       5 Max-NSgAt2=       5
 IPart= 19         3997 of         4168 points in       4 batches and       10 microbatches, Max-NSigAt=       5 Max-NSgAt2=       5
 IPart= 17         4388 of         4748 points in       5 batches and       22 microbatches, Max-NSigAt=       5 Max-NSgAt2=       5
 IPart= 24         2135 of         2360 points in       2 batches and       10 microbatches, Max-NSigAt=       5 Max-NSgAt2=       5
 IPart= 16         3849 of         4152 points in       5 batches and       32 microbatches, Max-NSigAt=       5 Max-NSgAt2=       5
 IPart= 11         2274 of         2360 points in       2 batches and        8 microbatches, Max-NSigAt=       5 Max-NSgAt2=       5
 IPart=  8         3417 of         3540 points in       3 batches and       12 microbatches, Max-NSigAt=       5 Max-NSgAt2=       5
 IPart=  7         3917 of         4144 points in       4 batches and       30 microbatches, Max-NSigAt=       5 Max-NSgAt2=       5
 IPart= 26         4158 of         4544 points in       5 batches and       35 microbatches, Max-NSigAt=       5 Max-NSgAt2=       5
 IPart= 29         4273 of         4790 points in       6 batches and       50 microbatches, Max-NSigAt=       5 Max-NSgAt2=       5
 IPart= 12         2314 of         2360 points in       2 batches and        8 microbatches, Max-NSigAt=       5 Max-NSgAt2=       5
 IPart= 31         2334 of         2360 points in       2 batches and        6 microbatches, Max-NSigAt=       5 Max-NSgAt2=       5
 IPart= 20         3085 of         3336 points in       3 batches and       10 microbatches, Max-NSigAt=       5 Max-NSgAt2=       5
 Forces at end of L703
 I=    0 X=   1.818560955330D-02 Y=   2.208107984915D-01 Z=   1.047483106003D-02
 I=    1 X=   1.554905472946D-03 Y=   1.622185240130D-02 Z=   8.932298635393D-04
 I=    2 X=   1.262349709729D-04 Y=  -1.116053376769D-03 Z=  -1.436372396313D-05
 I=    3 X=   4.291006763468D-05 Y=  -1.114712548181D-03 Z=   1.185854647467D-04
 I=    4 X=  -5.545468394219D-05 Y=  -2.446872563461D-03 Z=  -3.539736578917D-05
 I=    5 X=  -1.668595827611D-03 Y=  -1.154421391289D-02 Z=  -9.620542385279D-04
 FrcOut:
 IF    =    36 IFX   =    51 IFXYZ =    66
 IFFX  =    81 IFFFX =   201 IFLen =    15
 IFFLen=   120 IFFFLn=     0 IEDerv=   201
 LEDerv=   773 IFroze=  1163 ICStrt= 39591
 FCEst1:  Generated internal coordinate force constants:
                1             2             3             4             5 
      1  0.726033D+00
      2  0.792424D-02  0.230531D+00
      3 -0.219283D-02  0.457177D-02  0.728624D+00
      4 -0.116205D+00 -0.414040D-02  0.162265D-02  0.775779D-01
      5 -0.414470D-02 -0.716035D-01  0.160417D-01  0.402764D-02  0.489847D-01
      6  0.000000D+00  0.000000D+00 -0.362127D+00  0.000000D+00  0.000000D+00
      7 -0.300044D+00 -0.206652D-02  0.106026D+00  0.192759D-01 -0.172811D-04
      8  0.118277D-01 -0.716073D-01 -0.116011D-01 -0.345914D-04  0.108456D-01
      9  0.107651D+00 -0.358335D-02 -0.178278D+00  0.334245D-01 -0.299655D-04
     10 -0.300435D+00 -0.739732D-03 -0.106676D+00  0.193069D-01  0.416920D-04
     11 -0.146167D-01 -0.691827D-01 -0.844082D-02  0.549377D-04  0.108410D-01
     12 -0.106679D+00 -0.422235D-03 -0.177465D+00 -0.334128D-01 -0.135153D-03
     13 -0.934883D-02 -0.977583D-03  0.122045D-02  0.440073D-04  0.926490D-04
     14 -0.990587D-03 -0.181378D-01 -0.571507D-03  0.924171D-04  0.932260D-03
     15  0.122023D-02 -0.566181D-03 -0.107548D-01 -0.163429D-02 -0.158766D-01
                6             7             8             9            10 
      6  0.362127D+00
      7  0.000000D+00  0.291109D+00
      8  0.000000D+00  0.201011D-02  0.489855D-01
      9  0.000000D+00 -0.123144D+00  0.348553D-02  0.148594D+00
     10  0.000000D+00 -0.964542D-02 -0.962625D-04 -0.167252D-01  0.290798D+00
     11  0.000000D+00  0.274212D-04  0.108410D-01  0.475484D-04  0.789674D-03
     12  0.000000D+00  0.166922D-01  0.103590D-03  0.289442D-01  0.123436D+00
     13  0.000000D+00 -0.695549D-03 -0.137070D-01 -0.120608D-02 -0.247232D-04
     14  0.000000D+00  0.462741D-04  0.935189D-03  0.802394D-04  0.462830D-05
     15  0.000000D+00  0.426476D-03  0.801202D-02  0.739509D-03 -0.351361D-04
               11            12            13            14            15 
     11  0.493862D-01
     12  0.450851D-03  0.148506D+00
     13  0.137447D-01 -0.370897D-04  0.100251D-01
     14 -0.188548D-02  0.294753D-05  0.847267D-03  0.181559D-01
     15  0.794242D-02  0.146499D-04  0.227219D-04  0.488320D-03  0.100006D-01
 Quadrupole    = 6.88609497D-01-1.37948080D+00 6.90871302D-01
                -4.83388448D-02-1.55743807D-03-2.78556095D-02
 -------------------------------------------------------------------
 Center     Atomic                   Forces (Hartrees/Bohr)
 Number     Number              X              Y              Z
 -------------------------------------------------------------------
      1        6          -0.001554905   -0.016221852   -0.000893230
      2        1          -0.000126235    0.001116053    0.000014364
      3        1          -0.000042910    0.001114713   -0.000118585
      4        1           0.000055455    0.002446873    0.000035397
      5        1           0.001668596    0.011544214    0.000962054
 -------------------------------------------------------------------
 Cartesian Forces:  Max     0.016221852 RMS     0.005239939
 From PutF, contents of force:
   1   -0.2345272106D-02
   2   -0.1345627605D-02
   3   -0.7283894379D-04
   4    0.2529841225D-03
   5    0.2458839957D-05
   6    0.4316324146D-02
   7    0.2207106516D-04
   8    0.1436372396D-04
   9   -0.1169080784D-01
 -----------------------------------------------------------------------------------------------
                       Internal Coordinate Forces (Hartree/Bohr or radian)
  Cent   Atom   N1       Length/X         N2         Alpha/Y        N3         Beta/Z          J
 -----------------------------------------------------------------------------------------------
      1  C 
      2  H        1   0.000014(     1)
      3  H        1   0.000022(     2)      2   0.000253(     5)
      4  H        1  -0.000073(     3)      2   0.000002(     6)      3   0.004316(     8)     0
      5  H        1  -0.011691(     4)      2  -0.001346(     7)      3  -0.002345(     9)     0
 -----------------------------------------------------------------------------------------------
 Internal  Forces:  Max     0.011690808 RMS     0.004251623
 Force constants in Cartesian coordinates: 
                1             2             3             4             5 
      1  0.726033D+00
      2  0.792424D-02  0.230531D+00
      3 -0.219283D-02  0.457177D-02  0.728624D+00
      4 -0.116205D+00 -0.414040D-02  0.162265D-02  0.775779D-01
      5 -0.414470D-02 -0.716035D-01  0.160417D-01  0.402764D-02  0.489847D-01
      6  0.000000D+00  0.000000D+00 -0.362127D+00  0.000000D+00  0.000000D+00
      7 -0.300044D+00 -0.206652D-02  0.106026D+00  0.192759D-01 -0.172811D-04
      8  0.118277D-01 -0.716073D-01 -0.116011D-01 -0.345914D-04  0.108456D-01
      9  0.107651D+00 -0.358335D-02 -0.178278D+00  0.334245D-01 -0.299655D-04
     10 -0.300435D+00 -0.739732D-03 -0.106676D+00  0.193069D-01  0.416920D-04
     11 -0.146167D-01 -0.691827D-01 -0.844082D-02  0.549377D-04  0.108410D-01
     12 -0.106679D+00 -0.422235D-03 -0.177465D+00 -0.334128D-01 -0.135153D-03
     13 -0.934883D-02 -0.977583D-03  0.122045D-02  0.440073D-04  0.926490D-04
     14 -0.990587D-03 -0.181378D-01 -0.571507D-03  0.924171D-04  0.932260D-03
     15  0.122023D-02 -0.566181D-03 -0.107548D-01 -0.163429D-02 -0.158766D-01
                6             7             8             9            10 
      6  0.362127D+00
      7  0.000000D+00  0.291109D+00
      8  0.000000D+00  0.201011D-02  0.489855D-01
      9  0.000000D+00 -0.123144D+00  0.348553D-02  0.148594D+00
     10  0.000000D+00 -0.964542D-02 -0.962625D-04 -0.167252D-01  0.290798D+00
     11  0.000000D+00  0.274212D-04  0.108410D-01  0.475484D-04  0.789674D-03
     12  0.000000D+00  0.166922D-01  0.103590D-03  0.289442D-01  0.123436D+00
     13  0.000000D+00 -0.695549D-03 -0.137070D-01 -0.120608D-02 -0.247232D-04
     14  0.000000D+00  0.462741D-04  0.935189D-03  0.802394D-04  0.462830D-05
     15  0.000000D+00  0.426476D-03  0.801202D-02  0.739509D-03 -0.351361D-04
               11            12            13            14            15 
     11  0.493862D-01
     12  0.450851D-03  0.148506D+00
     13  0.137447D-01 -0.370897D-04  0.100251D-01
     14 -0.188548D-02  0.294753D-05  0.847267D-03  0.181559D-01
     15  0.794242D-02  0.146499D-04  0.227219D-04  0.488320D-03  0.100006D-01
 FCInt: Cartesian first derivatives: 
                 1             2             3             4             5 
      1   0.000000D+00  0.000000D+00  0.000000D+00  0.000000D+00  0.000000D+00
      2   0.000000D+00  0.000000D+00  0.000000D+00  0.000000D+00  0.000000D+00
      3   0.000000D+00  0.000000D+00  0.000000D+00  0.000000D+00  0.000000D+00
 FCInt: Cartesian force constants: 
                1             2             3             4             5 
      1  0.726033D+00
      2  0.792424D-02  0.230531D+00
      3 -0.219283D-02  0.457177D-02  0.728624D+00
      4 -0.116205D+00 -0.414040D-02  0.162265D-02  0.775779D-01
      5 -0.414470D-02 -0.716035D-01  0.160417D-01  0.402764D-02  0.489847D-01
      6  0.000000D+00  0.000000D+00 -0.362127D+00  0.000000D+00  0.000000D+00
      7 -0.300044D+00 -0.206652D-02  0.106026D+00  0.192759D-01 -0.172811D-04
      8  0.118277D-01 -0.716073D-01 -0.116011D-01 -0.345914D-04  0.108456D-01
      9  0.107651D+00 -0.358335D-02 -0.178278D+00  0.334245D-01 -0.299655D-04
     10 -0.300435D+00 -0.739732D-03 -0.106676D+00  0.193069D-01  0.416920D-04
     11 -0.146167D-01 -0.691827D-01 -0.844082D-02  0.549377D-04  0.108410D-01
     12 -0.106679D+00 -0.422235D-03 -0.177465D+00 -0.334128D-01 -0.135153D-03
     13 -0.934883D-02 -0.977583D-03  0.122045D-02  0.440073D-04  0.926490D-04
     14 -0.990587D-03 -0.181378D-01 -0.571507D-03  0.924171D-04  0.932260D-03
     15  0.122023D-02 -0.566181D-03 -0.107548D-01 -0.163429D-02 -0.158766D-01
                6             7             8             9            10 
      6  0.362127D+00
      7  0.000000D+00  0.291109D+00
      8  0.000000D+00  0.201011D-02  0.489855D-01
      9  0.000000D+00 -0.123144D+00  0.348553D-02  0.148594D+00
     10  0.000000D+00 -0.964542D-02 -0.962625D-04 -0.167252D-01  0.290798D+00
     11  0.000000D+00  0.274212D-04  0.108410D-01  0.475484D-04  0.789674D-03
     12  0.000000D+00  0.166922D-01  0.103590D-03  0.289442D-01  0.123436D+00
     13  0.000000D+00 -0.695549D-03 -0.137070D-01 -0.120608D-02 -0.247232D-04
     14  0.000000D+00  0.462741D-04  0.935189D-03  0.802394D-04  0.462830D-05
     15  0.000000D+00  0.426476D-03  0.801202D-02  0.739509D-03 -0.351361D-04
               11            12            13            14            15 
     11  0.493862D-01
     12  0.450851D-03  0.148506D+00
     13  0.137447D-01 -0.370897D-04  0.100251D-01
     14 -0.188548D-02  0.294753D-05  0.847267D-03  0.181559D-01
     15  0.794242D-02  0.146499D-04  0.227219D-04  0.488320D-03  0.100006D-01
 Internal force constants: 
                1             2             3             4             5 
      1  0.362127D+00
      2  0.000000D+00  0.362127D+00
      3  0.000000D+00  0.000000D+00  0.362127D+00
      4  0.000000D+00  0.000000D+00  0.000000D+00  0.182720D-01
      5  0.000000D+00  0.000000D+00  0.000000D+00  0.000000D+00  0.322054D+00
      6  0.000000D+00  0.000000D+00  0.000000D+00  0.000000D+00  0.160201D+00
      7  0.000000D+00  0.000000D+00  0.000000D+00  0.000000D+00  0.856083D-02
      8  0.000000D+00  0.000000D+00  0.000000D+00  0.000000D+00 -0.430339D-03
      9  0.000000D+00  0.000000D+00  0.000000D+00  0.000000D+00 -0.139353D-01
                6             7             8             9 
      6  0.320406D+00
      7  0.169676D-03  0.240723D+00
      8 -0.150897D-03 -0.689639D-01  0.153695D+00
      9 -0.429318D-03 -0.661011D-03 -0.119975D+00  0.239069D+00
 Frcnst in PutFF: 
                1             2             3             4             5 
      1  0.239069D+00
      2 -0.661011D-03  0.240723D+00
      3  0.000000D+00  0.000000D+00  0.362127D+00
      4 -0.139353D-01  0.856083D-02  0.000000D+00  0.322054D+00
      5 -0.429318D-03  0.169676D-03  0.000000D+00  0.160201D+00  0.320406D+00
      6 -0.119975D+00 -0.689639D-01  0.000000D+00 -0.430339D-03 -0.150897D-03
      7  0.000000D+00  0.000000D+00  0.000000D+00  0.000000D+00  0.000000D+00
      8  0.000000D+00  0.000000D+00  0.000000D+00  0.000000D+00  0.000000D+00
      9  0.000000D+00  0.000000D+00  0.000000D+00  0.000000D+00  0.000000D+00
                6             7             8             9 
      6  0.153695D+00
      7  0.000000D+00  0.362127D+00
      8  0.000000D+00  0.000000D+00  0.362127D+00
      9  0.000000D+00  0.000000D+00  0.000000D+00  0.182720D-01
 Force constants in internal coordinates: 
                1             2             3             4             5 
      1  0.362127D+00
      2  0.000000D+00  0.362127D+00
      3  0.000000D+00  0.000000D+00  0.362127D+00
      4  0.000000D+00  0.000000D+00  0.000000D+00  0.182720D-01
      5  0.000000D+00  0.000000D+00  0.000000D+00  0.000000D+00  0.322054D+00
      6  0.000000D+00  0.000000D+00  0.000000D+00  0.000000D+00  0.160201D+00
      7  0.000000D+00  0.000000D+00  0.000000D+00  0.000000D+00  0.856083D-02
      8  0.000000D+00  0.000000D+00  0.000000D+00  0.000000D+00 -0.430339D-03
      9  0.000000D+00  0.000000D+00  0.000000D+00  0.000000D+00 -0.139353D-01
                6             7             8             9 
      6  0.320406D+00
      7  0.169676D-03  0.240723D+00
      8 -0.150897D-03 -0.689639D-01  0.153695D+00
      9 -0.429318D-03 -0.661011D-03 -0.119975D+00  0.239069D+00
 Final forces over variables, Energy=-4.03482737D+01:
 -2.34527211D-03-1.34562761D-03-7.28389438D-05 2.52984123D-04
  2.45883996D-06 4.31632415D-03 2.20710652D-05 1.43637240D-05
 -1.16908078D-02

 GradGradGradGradGradGradGradGradGradGradGradGradGradGradGradGradGradGrad
 Berny optimization.
 Search for a local minimum.
 Step number   1 out of a maximum of   50
 All quantities printed in internal units (Hartrees-Bohrs-Radians)
 Second derivative matrix not updated -- first step.
 The second derivative matrix:
                         BABS1     AABS1      R3        A2        A3
           BABS1        0.23907
           AABS1       -0.00066   0.24072
           R3           0.00000   0.00000   0.36213
           A2          -0.01394   0.00856  -0.00000   0.32205
           A3          -0.00043   0.00017   0.00000   0.16020   0.32041
           D3          -0.11997  -0.06896  -0.00000  -0.00043  -0.00015
           R2          -0.00000  -0.00000  -0.00000   0.00000   0.00000
           R1           0.00000   0.00000   0.00000   0.00000   0.00000
           RTS         -0.00000  -0.00000  -0.00000  -0.00000  -0.00000
                          D3        R2        R1        RTS
           D3           0.15369
           R2          -0.00000   0.36213
           R1           0.00000   0.00000   0.36213
           RTS         -0.00000  -0.00000   0.00000   0.01827
 ITU=  0
     Eigenvalues ---    0.23884   0.240951000.000001000.000001000.00000
     Eigenvalues --- 1000.000001000.000001000.000001000.00000
 RFO step:  Lambda=-3.06019081D-05 EMin= 2.38836968D-01
 Linear search not attempted -- first point.
 Variable       Old X    -DE/DX   Delta X   Delta X   Delta X     New X
                                 (Linear)    (Quad)   (Total)
  BABS1       1.67334  -0.00235   0.00000  -0.00982  -0.00982   1.66351
  AABS1       1.62974  -0.00135   0.00000  -0.00562  -0.00562   1.62412
    R3        2.03750  -0.00007   0.00000   0.00000   0.00000   2.03750
    A2        2.09391   0.00025   0.00000   0.00000   0.00000   2.09391
    A3        2.09476   0.00000   0.00000   0.00000   0.00000   2.09476
    D3        3.13823   0.00432   0.00000   0.00000   0.00000   3.13823
    R2        2.03750   0.00002   0.00000   0.00000   0.00000   2.03750
    R1        2.03750   0.00001   0.00000   0.00000   0.00000   2.03750
   RTS        4.91329  -0.01169   0.00000   0.00000   0.00000   4.91329
         Item               Value     Threshold  Converged?
 Maximum Force            0.002345     0.000450     NO 
 RMS     Force            0.001912     0.000300     NO 
 Maximum Displacement     0.009824     0.001800     NO 
 RMS     Displacement     0.003772     0.001200     NO 
 Predicted change in Energy=-1.530095D-05
 GradGradGradGradGradGradGradGradGradGradGradGradGradGradGradGradGradGrad

 ---------------------------------------------------------------------------------------------------
                            Z-MATRIX (ANGSTROMS AND DEGREES)
   CD    Cent   Atom    N1       Length/X        N2       Alpha/Y        N3        Beta/Z          J
 ---------------------------------------------------------------------------------------------------
      1      1  C 
      2      2  H        1   1.078200(     1)
      3      3  H        1   1.078200(     2)      2  119.972(     5)
      4      4  H        1   1.078200(     3)      2  120.021(     6)      3  179.808(     8)      0
      5      5  H        1   2.600000(     4)      2   93.055(     7)      3   95.312(     9)      0
 ---------------------------------------------------------------------------------------------------
                         Z-Matrix orientation:                         
 ---------------------------------------------------------------------
 Center     Atomic      Atomic             Coordinates (Angstroms)
 Number     Number       Type             X           Y           Z
 ---------------------------------------------------------------------
      1          6           0        0.000000    0.000000    0.000000
      2          1           0        0.000000    0.000000    1.078200
      3          1           0        0.934011    0.000000   -0.538645
      4          1           0       -0.933548   -0.003135   -0.539437
      5          1           0       -0.240373   -2.585153   -0.138576
 ---------------------------------------------------------------------
                    Distance matrix (angstroms):
                    1          2          3          4          5
     1  C    0.000000
     2  H    1.078200   0.000000
     3  H    1.078200   1.867235   0.000000
     4  H    1.078200   1.867692   1.867562   0.000000
     5  H    2.600000   2.867288   2.867447   2.703332   0.000000
 Symmetry turned off by external request.
 Stoichiometry    CH4
 Framework group  C1[X(CH4)]
 Deg. of freedom     9
 Full point group                 C1      NOp   1
 Rotational constants (GHZ):    144.9587678     62.0744586     61.8656000
 Standard basis: Aug-CC-pVTZ (5D, 7F)
   138 basis functions,   180 primitive gaussians,   155 cartesian basis functions
     5 alpha electrons        5 beta electrons
       nuclear repulsion energy        11.4704610055 Hartrees.
 NAtoms=    5 NActive=    5 NUniq=    5 SFac= 1.00D+00 NAtFMM=   60 NAOKFM=F Big=F
 Integral buffers will be    131072 words long.
 Raffenetti 2 integral format.
 Two-electron integral symmetry is turned off.
 Nuclear repulsion after empirical dispersion term =       11.4697552659 Hartrees.
 One-electron integrals computed using PRISM.
 NBasis=   138 RedAO= T EigKep=  9.81D-05  NBF=   138
 NBsUse=   138 1.00D-06 EigRej= -1.00D+00 NBFU=   138
 ExpMin= 2.53D-02 ExpMax= 8.24D+03 ExpMxC= 2.81D+02 IAcc=3 IRadAn=         5 AccDes= 0.00D+00
 Harris functional with IExCor= 4639 and IRadAn=       5 diagonalized for initial guess.
 HarFok:  IExCor= 4639 AccDes= 0.00D+00 IRadAn=         5 IDoV= 1 UseB2=F ITyADJ=14
 ICtDFT=  3500011 ScaDFX=  1.000000  1.000000  1.000000  1.000000
 FoFCou: FMM=F IPFlag=           0 FMFlag=      100000 FMFlg1=           0
         NFxFlg=           0 DoJE=T BraDBF=F KetDBF=T FulRan=T
         wScrn=  0.000000 ICntrl=     500 IOpCl=  0 I1Cent=   200000004 NGrid=           0
         NMat0=    1 NMatS0=      1 NMatT0=    0 NMatD0=    1 NMtDS0=    0 NMtDT0=    0
 Symmetry not used in FoFCou.
 Mixing orbitals, IMix= 1 IMixAn=  0 NRI=1 NE=    5 Coef=  7.07106781D-01  7.07106781D-01
 Mixing orbitals, IMix= 1 IMixAn=  0 NRI=1 NE=    5 Coef= -7.07106781D-01  7.07106781D-01
 Initial guess <Sx>= 0.0000 <Sy>= 0.0000 <Sz>= 0.0000 <S**2>= 1.0000 S= 0.6180
 Keep R1 and R2 ints in memory in canonical form, NReq=186089687.
 Requested convergence on RMS density matrix=1.00D-08 within 128 cycles.
 Requested convergence on MAX density matrix=1.00D-06.
 Requested convergence on             energy=1.00D-06.
 No special actions if energy rises.
 SCF Done:  E(UwB97XD) =  -40.3483029090     A.U. after   14 cycles
            NFock= 14  Conv=0.45D-08     -V/T= 2.0084
 <Sx>= 0.0000 <Sy>= 0.0000 <Sz>= 0.0000 <S**2>= 0.8206 S= 0.5347
 <L.S>=  0.00000000000    
 Annihilation of the first spin contaminant:
 S**2 before annihilation     0.8206,   after     0.0184
 DipInt: DoE/N= T T RetVal/Mat= T F Init=T NMatP=  1 IDeriv=0 Min/MaxMlt=  1  1
 Entering OneElI...
 Multipole integrals L=1 to 1 MinM= 0 MaxM= 0.
 Requested accuracy = 0.1000D-12
 PrsmSu:  NPrtUS=   1 ThrOK=F IAlg=1 NPAlg=1 LenDen=           0.
 Prism:   IPart=     0 DynPar=F LinDyn=F Incr=          12.
 PRISM was handed   419323388 working-precision words and  1275 shell-pairs
 IPart=  0 NShTot=        1275 NBatch=          40 AvBLen=        31.9
 PrSmSu:  NxtVal=             13.
 Entering OneElI...
 Calculate overlap and kinetic energy integrals
    NBasis = 155  MinDer = 1  MaxDer = 1
 Requested accuracy = 0.1000D-12
 PrsmSu:  NPrtUS=  32 ThrOK=T IAlg=1 NPAlg=1 LenDen=           0.
 Prism:   IPart=     0 DynPar=F LinDyn=F Incr=           1.
 PRISM was handed    13082634 working-precision words and  1275 shell-pairs
 PRISM was handed    13082634 working-precision words and  1275 shell-pairs
 PRISM was handed    13082634 working-precision words and  1275 shell-pairs
 PRISM was handed    13082634 working-precision words and  1275 shell-pairs
 PRISM was handed    13082634 working-precision words and  1275 shell-pairs
 PRISM was handed    13082634 working-precision words and  1275 shell-pairs
 PRISM was handed    13082634 working-precision words and  1275 shell-pairs
 PRISM was handed    13082634 working-precision words and  1275 shell-pairs
 PRISM was handed    13082634 working-precision words and  1275 shell-pairs
 PRISM was handed    13082634 working-precision words and  1275 shell-pairs
 PRISM was handed    13082634 working-precision words and  1275 shell-pairs
 PRISM was handed    13082634 working-precision words and  1275 shell-pairs
 PRISM was handed    13082634 working-precision words and  1275 shell-pairs
[...]
 FrcOut:
 IF    =    36 IFX   =    51 IFXYZ =    66
 IFFX  =    81 IFFFX =    81 IFLen =    15
 IFFLen=     0 IFFFLn=     0 IEDerv=    81
 LEDerv=   773 IFroze=  1043 ICStrt= 39471
 -------------------------------------------------------------------
 Center     Atomic                   Forces (Hartrees/Bohr)
 Number     Number              X              Y              Z
 -------------------------------------------------------------------
      1        6           0.000071724   -0.016650543    0.000045474
      2        1          -0.000042238    0.001568561   -0.000015131
      3        1          -0.000026523    0.001568194   -0.000031294
      4        1           0.000012992    0.001572260    0.000009684
      5        1          -0.000015955    0.011941528   -0.000008733
 -------------------------------------------------------------------
 Cartesian Forces:  Max     0.016650543 RMS     0.005336939
 From PutF, contents of force:
   1   -0.5852162048D-05
   2   -0.1116066460D-05
   3   -0.2066536602D-04
   4    0.8223259100D-04
   5    0.1540600888D-05
   6    0.2773627322D-02
   7   -0.7341810186D-05
   8   -0.1513139069D-04
   9   -0.1194154135D-01
 -----------------------------------------------------------------------------------------------
                       Internal Coordinate Forces (Hartree/Bohr or radian)
  Cent   Atom   N1       Length/X         N2         Alpha/Y        N3         Beta/Z          J
 -----------------------------------------------------------------------------------------------
      1  C 
      2  H        1  -0.000015(     1)
      3  H        1  -0.000007(     2)      2   0.000082(     5)
      4  H        1  -0.000021(     3)      2   0.000002(     6)      3   0.002774(     8)     0
      5  H        1  -0.011942(     4)      2  -0.000001(     7)      3  -0.000006(     9)     0
 -----------------------------------------------------------------------------------------------
 Internal  Forces:  Max     0.011941541 RMS     0.004086576
 Final forces over variables, Energy=-4.03484377D+01:
 -5.85216205D-06-1.11606646D-06-2.06653660D-05 8.22325910D-05
  1.54060089D-06 2.77362732D-03-7.34181019D-06-1.51313907D-05
 -1.19415414D-02

 GradGradGradGradGradGradGradGradGradGradGradGradGradGradGradGradGradGrad
 Berny optimization.
 Search for a local minimum.
 Step number   5 out of a maximum of   50
 All quantities printed in internal units (Hartrees-Bohrs-Radians)
 Update second derivatives using D2CorN and points    4    5
 DE= -1.93D-05 DEPred=-1.98D-05 R= 9.73D-01
 TightC=F SS=  1.41D+00  RLast= 4.07D-02 DXNew= 5.0454D-01 1.2203D-01
 Trust test= 9.73D-01 RLast= 4.07D-02 DXMaxT set to 3.00D-01
 The second derivative matrix:
                         BABS1     AABS1      R3        A2        A3
           BABS1        0.07697
           AABS1       -0.09404   0.18693
           R3           0.00035   0.00020   0.36213
           A2          -0.00874   0.01154  -0.00000   0.32205
           A3          -0.00020   0.00030   0.00000   0.16020   0.32041
           D3          -0.01792  -0.01051  -0.00000  -0.00043  -0.00015
           R2          -0.00020  -0.00011  -0.00000   0.00000   0.00000
           R1          -0.00020  -0.00011   0.00000   0.00000   0.00000
           RTS         -0.00139  -0.00080  -0.00000  -0.00000  -0.00000
                          D3        R2        R1        RTS
           D3           0.15369
           R2          -0.00000   0.36213
           R1           0.00000   0.00000   0.36213
           RTS         -0.00000  -0.00000   0.00000   0.01827
 ITU=  1  1  1  1  0
     Eigenvalues ---    0.02302   0.240881000.000001000.000001000.00000
     Eigenvalues --- 1000.000001000.000001000.000001000.00000
 RFO step:  Lambda= 0.00000000D+00 EMin= 2.30195546D-02
 Quartic linear search produced a step of  0.00599.
 Variable       Old X    -DE/DX   Delta X   Delta X   Delta X     New X
                                 (Linear)    (Quad)   (Total)
  BABS1       1.56936  -0.00001  -0.00021  -0.00000  -0.00022   1.56915
  AABS1       1.57005  -0.00000  -0.00012   0.00001  -0.00011   1.56993
    R3        2.03750  -0.00002   0.00000   0.00000   0.00000   2.03750
    A2        2.09391   0.00008   0.00000   0.00000   0.00000   2.09391
    A3        2.09476   0.00000   0.00000   0.00000   0.00000   2.09476
    D3        3.13823   0.00277   0.00000   0.00000   0.00000   3.13823
    R2        2.03750  -0.00001   0.00000   0.00000   0.00000   2.03750
    R1        2.03750  -0.00002   0.00000   0.00000   0.00000   2.03750
   RTS        4.91329  -0.01194   0.00000   0.00000   0.00000   4.91329
         Item               Value     Threshold  Converged?
 Maximum Force            0.000006     0.000450     YES
 RMS     Force            0.000004     0.000300     YES
 Maximum Displacement     0.000215     0.001800     YES
 RMS     Displacement     0.000081     0.001200     YES
 Predicted change in Energy=-6.966734D-10
 Optimization completed.
    -- Stationary point found.
                       ----------------------------
                       !   Optimized Parameters   !
                       ! (Angstroms and Degrees)  !
 ----------------------                            ----------------------
 !      Name          Value   Derivative information (Atomic Units)     !
 ------------------------------------------------------------------------
 !      BABS1       89.9177   -DE/DX =    0.0                           !
 !      AABS1       89.957    -DE/DX =    0.0                           !
 !       R3          1.0782   -DE/DX =    0.0                           !
 !       A2        119.9721   -DE/DX =    0.0001                        !
 !       A3        120.0207   -DE/DX =    0.0                           !
 !       D3        179.8076   -DE/DX =    0.0028                        !
 !       R2          1.0782   -DE/DX =    0.0                           !
 !       R1          1.0782   -DE/DX =    0.0                           !
 !       RTS         2.6      -DE/DX =   -0.0119                        !
 ------------------------------------------------------------------------
 GradGradGradGradGradGradGradGradGradGradGradGradGradGradGradGradGradGrad

 ---------------------------------------------------------------------------------------------------
                            Z-MATRIX (ANGSTROMS AND DEGREES)
   CD    Cent   Atom    N1       Length/X        N2       Alpha/Y        N3        Beta/Z          J
 ---------------------------------------------------------------------------------------------------
      1      1  C 
      2      2  H        1   1.078200(     1)
      3      3  H        1   1.078200(     2)      2  119.972(     5)
      4      4  H        1   1.078200(     3)      2  120.021(     6)      3  179.808(     8)      0
      5      5  H        1   2.600000(     4)      2   89.957(     7)      3   89.918(     9)      0
 ---------------------------------------------------------------------------------------------------
                         Z-Matrix orientation:                         
 ---------------------------------------------------------------------
 Center     Atomic      Atomic             Coordinates (Angstroms)
 Number     Number       Type             X           Y           Z
 ---------------------------------------------------------------------
      1          6           0        0.000000    0.000000    0.000000
      2          1           0        0.000000    0.000000    1.078200
      3          1           0        0.934011    0.000000   -0.538645
      4          1           0       -0.933548   -0.003135   -0.539437
      5          1           0        0.003733   -2.599997    0.001951
 ---------------------------------------------------------------------
                    Distance matrix (angstroms):
                    1          2          3          4          5
     1  C    0.000000
     2  H    1.078200   0.000000
     3  H    1.078200   1.867235   0.000000
     4  H    1.078200   1.867692   1.867562   0.000000
     5  H    2.600000   2.813949   2.813831   2.813412   0.000000
 Symmetry turned off by external request.
 Stoichiometry    CH4
 Framework group  C1[X(CH4)]
 Deg. of freedom     9
 Full point group                 C1      NOp   1
 Rotational constants (GHZ):    143.7846708     62.0822804     62.0744705

 **********************************************************************

            Population analysis using the SCF density.

 **********************************************************************

 Alpha  occ. eigenvalues --  -10.31175  -0.79492  -0.51775  -0.51767  -0.32399
 Alpha virt. eigenvalues --   -0.02417   0.03779   0.05107   0.05108   0.10400
 Alpha virt. eigenvalues --    0.11119   0.12709   0.12710   0.13823   0.19475
 Alpha virt. eigenvalues --    0.19477   0.20256   0.20257   0.26470   0.29874
 Alpha virt. eigenvalues --    0.30919   0.30919   0.32666   0.32669   0.33903
 Alpha virt. eigenvalues --    0.34010   0.37614   0.38811   0.38813   0.39710
 Alpha virt. eigenvalues --    0.40334   0.40336   0.44148   0.44149   0.57871
 Alpha virt. eigenvalues --    0.58766   0.66462   0.66474   0.68725   0.73256
 Alpha virt. eigenvalues --    0.73261   0.80210   0.80760   0.80762   0.81145
 Alpha virt. eigenvalues --    0.81147   0.81167   0.86244   0.86248   0.87648
 Alpha virt. eigenvalues --    0.94136   0.94141   0.94457   0.98983   0.98988
 Alpha virt. eigenvalues --    1.01589   1.01595   1.02122   1.03273   1.07034
 Alpha virt. eigenvalues --    1.07040   1.11613   1.11616   1.15800   1.20480
 Alpha virt. eigenvalues --    1.20484   1.26629   1.37888   1.37895   1.43355
 Alpha virt. eigenvalues --    1.49642   1.49644   1.50220   1.52594   1.57035
 Alpha virt. eigenvalues --    1.57048   1.59212   1.68899   1.79194   1.79205
 Alpha virt. eigenvalues --    1.94667   1.94679   1.95664   2.05620   2.05632
 Alpha virt. eigenvalues --    2.07348   2.75905   2.81923   2.81926   2.88021
 Alpha virt. eigenvalues --    2.98920   2.99806   2.99809   3.33794   3.33805
 Alpha virt. eigenvalues --    3.37815   3.37816   3.40824   3.42247   3.43378
 Alpha virt. eigenvalues --    3.43388   3.49752   3.68959   3.69789   3.72877
 Alpha virt. eigenvalues --    3.72881   3.80010   3.80010   3.86496   3.86497
 Alpha virt. eigenvalues --    4.02999   4.03039   4.03040   4.05297   4.05302
 Alpha virt. eigenvalues --    4.14425   4.16204   4.16233   4.31984   4.48767
 Alpha virt. eigenvalues --    4.57556   4.57557   4.59991   4.59992   4.78380
 Alpha virt. eigenvalues --    4.80484   5.04295   5.04351   5.09970   5.09993
 Alpha virt. eigenvalues --    5.17788   5.17797   5.28974   6.05999   6.21666
 Alpha virt. eigenvalues --    6.21704   6.39630  15.93390
  Beta  occ. eigenvalues --  -10.30186  -0.75422  -0.50689  -0.50681  -0.38543
  Beta virt. eigenvalues --   -0.00154   0.04233   0.05194   0.05195   0.06492
  Beta virt. eigenvalues --    0.13039   0.13041   0.13270   0.14587   0.19739
  Beta virt. eigenvalues --    0.19739   0.20604   0.20604   0.26866   0.30063
  Beta virt. eigenvalues --    0.31290   0.31290   0.32834   0.32837   0.34016
  Beta virt. eigenvalues --    0.34395   0.38134   0.38407   0.39105   0.39107
  Beta virt. eigenvalues --    0.40724   0.40727   0.44345   0.44347   0.53327
  Beta virt. eigenvalues --    0.59654   0.66746   0.66758   0.70932   0.73789
  Beta virt. eigenvalues --    0.73794   0.80218   0.81634   0.81899   0.81901
  Beta virt. eigenvalues --    0.82435   0.82437   0.86395   0.86400   0.88394
  Beta virt. eigenvalues --    0.93082   0.93086   0.93166   0.97531   0.97536
  Beta virt. eigenvalues --    1.01888   1.01894   1.02523   1.03159   1.07137
  Beta virt. eigenvalues --    1.07141   1.11789   1.11794   1.15206   1.20887
  Beta virt. eigenvalues --    1.20892   1.25571   1.38168   1.38174   1.43363
  Beta virt. eigenvalues --    1.50106   1.50108   1.50310   1.53259   1.57554
  Beta virt. eigenvalues --    1.57567   1.60444   1.69581   1.79749   1.79759
  Beta virt. eigenvalues --    1.95434   1.95769   1.95782   2.05882   2.05894
  Beta virt. eigenvalues --    2.09255   2.53774   2.83128   2.83130   2.91191
  Beta virt. eigenvalues --    3.00352   3.02572   3.02576   3.36193   3.36200
  Beta virt. eigenvalues --    3.40607   3.40609   3.42610   3.43288   3.44747
  Beta virt. eigenvalues --    3.44755   3.51836   3.70054   3.70063   3.70063
  Beta virt. eigenvalues --    3.70893   3.73507   3.73511   3.77615   3.77616
  Beta virt. eigenvalues --    3.86567   3.86568   3.94114   4.03527   4.03530
  Beta virt. eigenvalues --    4.12054   4.16997   4.17027   4.21204   4.47534
  Beta virt. eigenvalues --    4.57783   4.57785   4.60122   4.60124   4.77935
  Beta virt. eigenvalues --    4.82234   5.04659   5.04717   5.12699   5.12722
  Beta virt. eigenvalues --    5.18337   5.18346   5.30144   6.07129   6.22189
  Beta virt. eigenvalues --    6.22227   6.40435  15.95768
          Condensed to atoms (all electrons):
               1          2          3          4          5
     1  C    6.011185   0.333096   0.333096   0.333093   0.072267
     2  H    0.333096   0.279100   0.009959   0.009947  -0.003536
     3  H    0.333096   0.009959   0.279087   0.009952  -0.003541
     4  H    0.333093   0.009947   0.009952   0.279092  -0.003542
     5  H    0.072267  -0.003536  -0.003541  -0.003542   0.969955
          Atomic-Atomic Spin Densities.
               1          2          3          4          5
     1  C    0.872863   0.014926   0.014894   0.014863  -0.002039
     2  H    0.014926  -0.026982   0.000626   0.000628   0.006274
     3  H    0.014894   0.000626  -0.026993   0.000627   0.006278
     4  H    0.014863   0.000628   0.000627  -0.027001   0.006284
     5  H   -0.002039   0.006274   0.006278   0.006284  -0.918607
 Mulliken charges and spin densities:
               1          2
     1  C   -1.082737   0.915506
     2  H    0.371434  -0.004528
     3  H    0.371448  -0.004568
     4  H    0.371458  -0.004599
     5  H   -0.031603  -0.901811
 Sum of Mulliken charges =  -0.00000   0.00000
 Mulliken charges and spin densities with hydrogens summed into heavy atoms:
               1          2
     1  C   -0.000000   0.000000
 Electronic spatial extent (au):  <R**2>=             57.9241
 Charge=             -0.0000 electrons
 Dipole moment (field-independent basis, Debye):
    X=             -0.0007    Y=              0.5690    Z=             -0.0004  Tot=              0.5690
 Quadrupole moment (field-independent basis, Debye-Ang):
   XX=             -8.6304   YY=            -11.4276   ZZ=             -8.6308
   XY=              0.0045   XZ=              0.0009   YZ=              0.0026
 Traceless Quadrupole moment (field-independent basis, Debye-Ang):
   XX=              0.9325   YY=             -1.8647   ZZ=              0.9321
   XY=              0.0045   XZ=              0.0009   YZ=              0.0026
 Octapole moment (field-independent basis, Debye-Ang**2):
  XXX=             -0.0181  YYY=             14.0411  ZZZ=              0.9641  XYY=             -0.0087
  XXY=              4.1629  XXZ=             -0.9770  XZZ=             -0.0071  YZZ=              4.1648
  YYZ=             -0.0045  XYZ=             -0.0016
 Hexadecapole moment (field-independent basis, Debye-Ang**3):
 XXXX=            -16.8799 YYYY=            -78.6368 ZZZZ=            -16.8798 XXXY=              0.0451
 XXXZ=             -0.0004 YYYX=              0.0432 YYYZ=              0.0224 ZZZX=              0.0005
 ZZZY=              0.0150 XXYY=            -16.0801 XXZZ=             -5.6268 YYZZ=            -16.0800
 XXYZ=              0.0165 YYXZ=             -0.0002 ZZXY=              0.0151
 N-N= 1.146911312072D+01 E-N=-1.157136923403D+02  KE= 4.001023650419D+01
                          Isotropic Fermi Contact Couplings
        Atom                 a.u.       MegaHertz       Gauss      10(-4) cm-1
     1  C(13)              0.00419       2.35244       0.83941       0.78469
     2  H(1)              -0.01323     -29.57554     -10.55329      -9.86534
     3  H(1)              -0.01324     -29.58203     -10.55560      -9.86750
     4  H(1)              -0.01324     -29.59119     -10.55887      -9.87056
     5  H(1)              -0.26901    -601.21345    -214.52790    -200.54322
 --------------------------------------------------------
       Center         ----  Spin Dipole Couplings  ----
                      3XX-RR        3YY-RR        3ZZ-RR
 --------------------------------------------------------
     1   Atom       -0.503189      1.006420     -0.503231
     2   Atom       -0.064113     -0.005797      0.069910
     3   Atom        0.036464     -0.005797     -0.030668
     4   Atom        0.036332     -0.005766     -0.030567
     5   Atom       -0.011184      0.022369     -0.011184
 --------------------------------------------------------
                        XY            XZ            YZ
 --------------------------------------------------------
     1   Atom       -0.002544     -0.000007     -0.001474
     2   Atom       -0.000101      0.000010     -0.006383
     3   Atom       -0.005581     -0.058000      0.003100
     4   Atom        0.005717      0.058046      0.003303
     5   Atom       -0.000047     -0.000000     -0.000023
 --------------------------------------------------------


 ---------------------------------------------------------------------------------
              Anisotropic Spin Dipole Couplings in Principal Axis System
 ---------------------------------------------------------------------------------

       Atom             a.u.   MegaHertz   Gauss  10(-4) cm-1        Axes

              Baa    -0.5032   -67.529   -24.096   -22.525  0.2235  0.0013  0.9747
     1 C(13)  Bbb    -0.5032   -67.523   -24.094   -22.523  0.9747  0.0014 -0.2235
              Bcc     1.0064   135.053    48.190    45.049 -0.0017  1.0000 -0.0010
 
              Baa    -0.0641   -34.208   -12.206   -11.411  1.0000  0.0017  0.0000
     2 H(1)   Bbb    -0.0063    -3.378    -1.205    -1.127 -0.0017  0.9965  0.0834
              Bcc     0.0704    37.586    13.412    12.537  0.0001 -0.0834  0.9965
 
              Baa    -0.0641   -34.208   -12.206   -11.411  0.4996  0.0018  0.8662
     3 H(1)   Bbb    -0.0063    -3.378    -1.205    -1.127  0.0714  0.9965 -0.0432
              Bcc     0.0704    37.586    13.412    12.537  0.8633 -0.0834 -0.4978
 
              Baa    -0.0641   -34.207   -12.206   -11.410 -0.5004  0.0000  0.8658
     4 H(1)   Bbb    -0.0063    -3.381    -1.207    -1.128 -0.0747  0.9963 -0.0432
              Bcc     0.0704    37.588    13.412    12.538  0.8626  0.0863  0.4985
 
              Baa    -0.0112    -5.967    -2.129    -1.991  0.8434  0.0015  0.5374
     5 H(1)   Bbb    -0.0112    -5.967    -2.129    -1.991 -0.5374 -0.0002  0.8434
              Bcc     0.0224    11.935     4.259     3.981 -0.0014  1.0000 -0.0007
 

 ---------------------------------------------------------------------------------


 Test job not archived.
 1\1\GINC-NODE-6-8\POpt\UwB97XD\Aug-CC-pVTZ\C1H4\CAVALLOTTI\03-Jun-2023
 \1\\# uwb97xd/aug-cc-pvtz opt=(noeig,intern,maxcyc=50) # int=ultrafine
  nosym iop(7/33=1) guess=(mix,always)\\geom 0\\0,1\C\H,1,R1\H,1,R2,2,A
 2\H,1,R3,2,A3,3,D3,0\H,1,RTS,2,AABS1,3,BABS1,0\\BABS1=89.91773137\AABS
 1=89.95701006\R3=1.0782\A2=119.9721\A3=120.0207\D3=179.8076\R2=1.0782\
 R1=1.0782\RTS=2.6\\Version=EM64L-G09RevD.01\HF=-40.3484377\S2=0.818634
 \S2-1=0.\S2A=0.018257\RMSD=9.110e-09\RMSF=5.337e-03\Dipole=-0.0002895,
 0.2238462,-0.0001564\Quadrupole=0.693326,-1.3863306,0.6930046,0.003380
 5,0.0006617,0.001901\PG=C01 [X(C1H4)]\\@


 IF AT FIRST YOU DON'T SUCCEED, TRY, TRY AGAIN.
 THEN GIVE UP;
 THERE'S NO USE BEING A DAMN FOOL ABOUT IT.

                                 -- W. C. FIELDS
 Job cpu time:       0 days  0 hours 47 minutes 18.1 seconds.
 File lengths (MBytes):  RWF=     66 Int=      0 D2E=      0 Chk=      3 Scr=      1
 Normal termination of Gaussian 09 at Sat Jun  3 09:00:57 2023.
