 Entering Gaussian System, Link 0=g09
 Input=geom.com
 Output=geom.log
 Initial command:
 /software/cinetica/g09d1/g09d01/d01/build-node-6-2-59348/src/main/l1.exe "/scratch/cc/140685/Gau-133422.inp" -scrdir="/scratch/cc/140685/"
 Entering Link 1 = /software/cinetica/g09d1/g09d01/d01/build-node-6-2-59348/src/main/l1.exe PID=    133423.
  
 Copyright (c) 1988,1990,1992,1993,1995,1998,2003,2009,2013,
            Gaussian, Inc.  All Rights Reserved.
  
 This is part of the Gaussian(R) 09 program.  It is based on
 the Gaussian(R) 03 system (copyright 2003, Gaussian, Inc.),
 the Gaussian(R) 98 system (copyright 1998, Gaussian, Inc.),
 the Gaussian(R) 94 system (copyright 1995, Gaussian, Inc.),
 the Gaussian 92(TM) system (copyright 1992, Gaussian, Inc.),
 the Gaussian 90(TM) system (copyright 1990, Gaussian, Inc.),
 the Gaussian 88(TM) system (copyright 1988, Gaussian, Inc.),
 the Gaussian 86(TM) system (copyright 1986, Carnegie Mellon
 University), and the Gaussian 82(TM) system (copyright 1983,
 Carnegie Mellon University). Gaussian is a federally registered
 trademark of Gaussian, Inc.
  
 This software contains proprietary and confidential information,
 including trade secrets, belonging to Gaussian, Inc.
  
 This software is provided under written license and may be
 used, copied, transmitted, or stored only in accord with that
 written license.
  
 The following legend is applicable only to US Government
 contracts under FAR:
  
                    RESTRICTED RIGHTS LEGEND
  
 Use, reproduction and disclosure by the US Government is
 subject to restrictions as set forth in subparagraphs (a)
 and (c) of the Commercial Computer Software - Restricted
 Rights clause in FAR 52.227-19.
  
 Gaussian, Inc.
 340 Quinnipiac St., Bldg. 40, Wallingford CT 06492
  
  
 ---------------------------------------------------------------
 Warning -- This program may not be used in any manner that
 competes with the business of Gaussian, Inc. or will provide
 assistance to any competitor of Gaussian, Inc.  The licensee
 of this program is prohibited from giving any competitor of
 Gaussian, Inc. access to this program.  By using this program,
 the user acknowledges that Gaussian, Inc. is engaged in the
 business of creating and licensing software in the field of
 computational chemistry and represents and warrants to the
 licensee that it is not a competitor of Gaussian, Inc. and that
 it will not use this program in any manner prohibited above.
 ---------------------------------------------------------------
  

 Cite this work as:
 Gaussian 09, Revision D.01,
 M. J. Frisch, G. W. Trucks, H. B. Schlegel, G. E. Scuseria, 
 M. A. Robb, J. R. Cheeseman, G. Scalmani, V. Barone, B. Mennucci, 
 G. A. Petersson, H. Nakatsuji, M. Caricato, X. Li, H. P. Hratchian, 
 A. F. Izmaylov, J. Bloino, G. Zheng, J. L. Sonnenberg, M. Hada, 
 M. Ehara, K. Toyota, R. Fukuda, J. Hasegawa, M. Ishida, T. Nakajima, 
 Y. Honda, O. Kitao, H. Nakai, T. Vreven, J. A. Montgomery, Jr., 
 J. E. Peralta, F. Ogliaro, M. Bearpark, J. J. Heyd, E. Brothers, 
 K. N. Kudin, V. N. Staroverov, T. Keith, R. Kobayashi, J. Normand, 
 K. Raghavachari, A. Rendell, J. C. Burant, S. S. Iyengar, J. Tomasi, 
 M. Cossi, N. Rega, J. M. Millam, M. Klene, J. E. Knox, J. B. Cross, 
 V. Bakken, C. Adamo, J. Jaramillo, R. Gomperts, R. E. Stratmann, 
 O. Yazyev, A. J. Austin, R. Cammi, C. Pomelli, J. W. Ochterski, 
 R. L. Martin, K. Morokuma, V. G. Zakrzewski, G. A. Voth, 
 P. Salvador, J. J. Dannenberg, S. Dapprich, A. D. Daniels, 
 O. Farkas, J. B. Foresman, J. V. Ortiz, J. Cioslowski, 
 and D. J. Fox, Gaussian, Inc., Wallingford CT, 2013.
 
 ******************************************
 Gaussian 09:  EM64L-G09RevD.01 24-Apr-2013
                 3-Jun-2023 
 ******************************************
 %mem=400MW
 %chk=tmp
 %NProcShared= 32
 Will use up to   32 processors via shared memory.
 ----------------------------------------------------------------------
 # uwb97xd/aug-cc-pvtz opt=(noeig,intern,maxcyc=50) # int=ultrafine nos
 ym freq iop(7/33=1) guess=(mix,always)
 ----------------------------------------------------------------------
 1/6=50,10=7,11=1,14=-1,18=40,26=4,38=1/1,3;
 2/12=2,15=1,17=6,18=5,29=3,40=1/2;
 3/5=16,6=1,7=10,11=2,16=1,25=1,30=1,71=1,74=-58,75=-5,116=2/1,2,3;
 4/13=-1/1;
 5/5=2,38=5/2;
 6/7=2,8=2,9=2,10=2,28=1/1;
 7/29=1,30=1,33=1/1,2,3,16;
 1/6=50,10=7,11=1,14=-1,18=40,26=4/3(2);
 2/15=1,29=3/2;
 99//99;
 2/15=1,29=3/2;
 3/5=16,6=1,7=10,11=2,16=1,25=1,30=1,71=1,74=-58,75=-5,116=2/1,2,3;
 4/13=-1/1;
 5/5=2,38=5/2;
 7/30=1,33=1/1,2,3,16;
 1/6=50,11=1,14=-1,18=40,26=4/3(-5);
 2/15=1,29=3/2;
 6/7=2,8=2,9=2,10=2,19=2,28=1/1;
 99/9=1/99;
 ------
 geom 0
 ------
 Symbolic Z-matrix:
 Charge =  0 Multiplicity = 1
 C1
 H2                   C1   R1
 H3                   C1   R2       H2   A2
 H4                   C1   R3       H2   A3       H3   D3       0
 H21                  C1   BB       H2   ANG1     H3   DH1      0
       Variables:
  R1                    1.0791                   
  R2                    1.0791                   
  R3                    1.0791                   
  A2                  117.1143                   
  A3                  117.1221                   
  D3                  213.1119                   
  DH1                 106.5501                   
  ANG1                 99.8829                   
       Constants:
  BB                    2.6                      
 

 GradGradGradGradGradGradGradGradGradGradGradGradGradGradGradGradGradGrad
 Berny optimization.
 Initialization pass.
                       ----------------------------
                       !    Initial Parameters    !
                       ! (Angstroms and Degrees)  !
 ----------------------                            ----------------------
 !      Name          Value   Derivative information (Atomic Units)     !
 ------------------------------------------------------------------------
 !       R1          1.0791   estimate D2E/DX2                          !
 !       R2          1.0791   estimate D2E/DX2                          !
 !       R3          1.0791   estimate D2E/DX2                          !
 !       A2        117.1143   estimate D2E/DX2                          !
 !       A3        117.1221   estimate D2E/DX2                          !
 !       D3        213.1119   estimate D2E/DX2                          !
 !       DH1       106.5501   estimate D2E/DX2                          !
 !      ANG1        99.8829   estimate D2E/DX2                          !
 !       BB          2.6      Frozen                                    !
 ------------------------------------------------------------------------
 Trust Radius=3.00D-01 FncErr=1.00D-07 GrdErr=1.00D-06
 Number of steps in this run=     50 maximum allowed number of steps=    100.
 GradGradGradGradGradGradGradGradGradGradGradGradGradGradGradGradGradGrad

 ---------------------------------------------------------------------------------------------------
                            Z-MATRIX (ANGSTROMS AND DEGREES)
   CD    Cent   Atom    N1       Length/X        N2       Alpha/Y        N3        Beta/Z          J
 ---------------------------------------------------------------------------------------------------
      1      1  C 
      2      2  H        1   1.079100(     1)
      3      3  H        1   1.079100(     2)      2  117.114(     5)
      4      4  H        1   1.079100(     3)      2  117.122(     6)      3  213.112(     8)      0
      5      5  H        1   2.600000(     4)      2   99.883(     7)      3  106.550(     9)      0
 ---------------------------------------------------------------------------------------------------
                         Z-Matrix orientation:                         
 ---------------------------------------------------------------------
 Center     Atomic      Atomic             Coordinates (Angstroms)
 Number     Number       Type             X           Y           Z
 ---------------------------------------------------------------------
      1          6           0        0.000000    0.000000    0.000000
      2          1           0        0.000000    0.000000    1.079100
      3          1           0        0.960506    0.000000   -0.491818
      4          1           0       -0.804469    0.524665   -0.491949
      5          1           0       -0.729629   -2.455301   -0.446251
 ---------------------------------------------------------------------
                    Distance matrix (angstroms):
                    1          2          3          4          5
     1  C    0.000000
     2  H    1.079100   0.000000
     3  H    1.079100   1.841292   0.000000
     4  H    1.079100   1.841369   1.841306   0.000000
     5  H    2.600000   2.981200   2.981130   2.981255   0.000000
 Symmetry turned off by external request.
 Stoichiometry    CH4
 Framework group  C1[X(CH4)]
 Deg. of freedom     9
 Full point group                 C1      NOp   1
 Rotational constants (GHZ):    147.9014651     60.4505017     60.4492393
 Standard basis: Aug-CC-pVTZ (5D, 7F)
   138 basis functions,   180 primitive gaussians,   155 cartesian basis functions
     5 alpha electrons        5 beta electrons
       nuclear repulsion energy        11.4428386872 Hartrees.
 NAtoms=    5 NActive=    5 NUniq=    5 SFac= 1.00D+00 NAtFMM=   60 NAOKFM=F Big=F
 Integral buffers will be    131072 words long.
 Raffenetti 2 integral format.
 Two-electron integral symmetry is turned off.
 Nuclear repulsion after empirical dispersion term =       11.4422292148 Hartrees.
 One-electron integrals computed using PRISM.
 NBasis=   138 RedAO= T EigKep=  1.08D-04  NBF=   138
 NBsUse=   138 1.00D-06 EigRej= -1.00D+00 NBFU=   138
 ExpMin= 2.53D-02 ExpMax= 8.24D+03 ExpMxC= 2.81D+02 IAcc=3 IRadAn=         5 AccDes= 0.00D+00
 Harris functional with IExCor= 4639 and IRadAn=       5 diagonalized for initial guess.
 HarFok:  IExCor= 4639 AccDes= 0.00D+00 IRadAn=         5 IDoV= 1 UseB2=F ITyADJ=14
 ICtDFT=  3500011 ScaDFX=  1.000000  1.000000  1.000000  1.000000
 FoFCou: FMM=F IPFlag=           0 FMFlag=      100000 FMFlg1=           0
         NFxFlg=           0 DoJE=T BraDBF=F KetDBF=T FulRan=T
         wScrn=  0.000000 ICntrl=     500 IOpCl=  0 I1Cent=   200000004 NGrid=           0
         NMat0=    1 NMatS0=      1 NMatT0=    0 NMatD0=    1 NMtDS0=    0 NMtDT0=    0
 Symmetry not used in FoFCou.
 Mixing orbitals, IMix= 1 IMixAn=  0 NRI=1 NE=    5 Coef=  7.07106781D-01  7.07106781D-01
 Mixing orbitals, IMix= 1 IMixAn=  0 NRI=1 NE=    5 Coef= -7.07106781D-01  7.07106781D-01
 Initial guess <Sx>= 0.0000 <Sy>= 0.0000 <Sz>= 0.0000 <S**2>= 1.0000 S= 0.6180
 Keep R1 and R2 ints in memory in canonical form, NReq=186089491.
 Requested convergence on RMS density matrix=1.00D-08 within 128 cycles.
 Requested convergence on MAX density matrix=1.00D-06.
 Requested convergence on             energy=1.00D-06.
 No special actions if energy rises.
 SCF Done:  E(UwB97XD) =  -40.3474513477     A.U. after   14 cycles
            NFock= 14  Conv=0.61D-08     -V/T= 2.0085
 <Sx>= 0.0000 <Sy>= 0.0000 <Sz>= 0.0000 <S**2>= 0.8049 S= 0.5271
 <L.S>=  0.00000000000    
 Annihilation of the first spin contaminant:
 S**2 before annihilation     0.8049,   after     0.0158

 **********************************************************************

            Population analysis using the SCF density.

 **********************************************************************

 Alpha  occ. eigenvalues --  -10.31284  -0.79578  -0.51346  -0.51344  -0.33242
 Alpha virt. eigenvalues --   -0.02142   0.03723   0.05095   0.05095   0.10627
 Alpha virt. eigenvalues --    0.11345   0.12754   0.12755   0.13817   0.19873
 Alpha virt. eigenvalues --    0.19873   0.19966   0.19967   0.26805   0.30507
 Alpha virt. eigenvalues --    0.30565   0.30566   0.32451   0.32451   0.33586
 Alpha virt. eigenvalues --    0.34406   0.37909   0.38280   0.38280   0.40231
 Alpha virt. eigenvalues --    0.41595   0.41596   0.46204   0.46205   0.58036
 Alpha virt. eigenvalues --    0.59218   0.59219   0.60220   0.69363   0.74288
 Alpha virt. eigenvalues --    0.74288   0.79680   0.79681   0.80276   0.80778
 Alpha virt. eigenvalues --    0.80779   0.81417   0.88935   0.92035   0.92037
 Alpha virt. eigenvalues --    0.94739   0.95211   0.95211   0.97558   0.97558
 Alpha virt. eigenvalues --    1.01330   1.02238   1.02239   1.03108   1.07365
 Alpha virt. eigenvalues --    1.07366   1.12261   1.12262   1.18373   1.18776
 Alpha virt. eigenvalues --    1.18777   1.24737   1.41353   1.41356   1.48022
 Alpha virt. eigenvalues --    1.48023   1.48341   1.51142   1.51760   1.51760
 Alpha virt. eigenvalues --    1.52019   1.54621   1.73577   1.76131   1.76132
 Alpha virt. eigenvalues --    1.89307   1.89310   1.90168   2.04431   2.04433
 Alpha virt. eigenvalues --    2.08383   2.74134   2.81770   2.81773   2.87342
 Alpha virt. eigenvalues --    2.92665   3.06764   3.06766   3.34679   3.34681
 Alpha virt. eigenvalues --    3.37001   3.37543   3.38848   3.38848   3.44491
 Alpha virt. eigenvalues --    3.48467   3.48469   3.71665   3.72038   3.72039
 Alpha virt. eigenvalues --    3.74228   3.79962   3.79963   3.87407   3.87410
 Alpha virt. eigenvalues --    3.94966   3.94966   3.98679   4.06933   4.06933
 Alpha virt. eigenvalues --    4.17282   4.20073   4.20076   4.28053   4.48668
 Alpha virt. eigenvalues --    4.48669   4.50319   4.64193   4.64195   4.69476
 Alpha virt. eigenvalues --    4.83786   4.99189   4.99195   5.06065   5.06066
 Alpha virt. eigenvalues --    5.23652   5.47030   5.47036   5.89357   5.91542
 Alpha virt. eigenvalues --    6.21173   6.21182  15.97161
  Beta  occ. eigenvalues --  -10.30276  -0.75682  -0.50202  -0.50200  -0.38471
  Beta virt. eigenvalues --   -0.00519   0.04067   0.05233   0.05233   0.06435
  Beta virt. eigenvalues --    0.12826   0.12826   0.13080   0.14127   0.20039
  Beta virt. eigenvalues --    0.20039   0.20307   0.20308   0.26986   0.30262
  Beta virt. eigenvalues --    0.30804   0.30804   0.32482   0.32483   0.34236
  Beta virt. eigenvalues --    0.34389   0.38276   0.38644   0.38705   0.38706
  Beta virt. eigenvalues --    0.41747   0.41747   0.46274   0.46274   0.52729
  Beta virt. eigenvalues --    0.59667   0.59668   0.61526   0.71691   0.74717
  Beta virt. eigenvalues --    0.74717   0.80541   0.80693   0.80694   0.81398
  Beta virt. eigenvalues --    0.81791   0.81792   0.89397   0.92201   0.92202
  Beta virt. eigenvalues --    0.93448   0.94187   0.94187   0.96562   0.96563
  Beta virt. eigenvalues --    1.01463   1.02693   1.02695   1.02931   1.06627
  Beta virt. eigenvalues --    1.06628   1.12356   1.12357   1.17435   1.19309
  Beta virt. eigenvalues --    1.19311   1.24214   1.41538   1.41539   1.47833
  Beta virt. eigenvalues --    1.48350   1.48351   1.51241   1.52378   1.52379
  Beta virt. eigenvalues --    1.53508   1.55368   1.74941   1.76906   1.76907
  Beta virt. eigenvalues --    1.89988   1.90416   1.90419   2.04688   2.04690
  Beta virt. eigenvalues --    2.10377   2.49573   2.82611   2.82615   2.89657
  Beta virt. eigenvalues --    2.96334   3.09191   3.09196   3.37061   3.37063
  Beta virt. eigenvalues --    3.37454   3.40155   3.42445   3.42447   3.47616
  Beta virt. eigenvalues --    3.49890   3.49893   3.70110   3.70110   3.72987
  Beta virt. eigenvalues --    3.73081   3.73082   3.74570   3.78253   3.78254
  Beta virt. eigenvalues --    3.86740   3.86741   3.89922   3.96737   3.96737
  Beta virt. eigenvalues --    4.12480   4.18362   4.21032   4.21034   4.48669
  Beta virt. eigenvalues --    4.48671   4.50319   4.64696   4.64698   4.69234
  Beta virt. eigenvalues --    4.85351   4.99622   4.99628   5.08327   5.08328
  Beta virt. eigenvalues --    5.24668   5.47733   5.47738   5.90706   5.92617
  Beta virt. eigenvalues --    6.21914   6.21924  15.99501
          Condensed to atoms (all electrons):
               1          2          3          4          5
     1  C    5.895783   0.347629   0.347558   0.347698   0.076050
     2  H    0.347629   0.288457   0.011146   0.011130  -0.004060
     3  H    0.347558   0.011146   0.288393   0.011135  -0.004059
     4  H    0.347698   0.011130   0.011135   0.288567  -0.004068
     5  H    0.076050  -0.004060  -0.004059  -0.004068   0.958483
          Atomic-Atomic Spin Densities.
               1          2          3          4          5
     1  C    0.842182   0.019148   0.019194   0.019105  -0.003296
     2  H    0.019148  -0.026749   0.001169   0.001180   0.005241
     3  H    0.019194   0.001169  -0.026708   0.001178   0.005240
     4  H    0.019105   0.001180   0.001178  -0.026838   0.005250
     5  H   -0.003296   0.005241   0.005240   0.005250  -0.908707
 Mulliken charges and spin densities:
               1          2
     1  C   -1.014717   0.896333
     2  H    0.345698  -0.000011
     3  H    0.345828   0.000074
     4  H    0.345538  -0.000125
     5  H   -0.022347  -0.896271
 Sum of Mulliken charges =  -0.00000  -0.00000
 Mulliken charges and spin densities with hydrogens summed into heavy atoms:
               1          2
     1  C   -0.000000  -0.000000
 Electronic spatial extent (au):  <R**2>=             57.7765
 Charge=             -0.0000 electrons
 Dipole moment (field-independent basis, Debye):
    X=              0.2386    Y=              0.8029    Z=              0.1459  Tot=              0.8502
 Quadrupole moment (field-independent basis, Debye-Ang):
   XX=             -8.9102   YY=            -10.7538   ZZ=             -8.7983
   XY=             -0.6010   XZ=             -0.1091   YZ=             -0.3676
 Traceless Quadrupole moment (field-independent basis, Debye-Ang):
   XX=              0.5772   YY=             -1.2664   ZZ=              0.6892
   XY=             -0.6010   XZ=             -0.1091   YZ=             -0.3676
 Octapole moment (field-independent basis, Debye-Ang**2):
  XXX=              3.5525  YYY=             11.4969  ZZZ=              2.9521  XYY=              1.0392
  XXY=              3.9552  XXZ=             -0.1054  XZZ=              1.1017  YZZ=              3.7078
  YYZ=              0.6357  XYZ=              0.2417
 Hexadecapole moment (field-independent basis, Debye-Ang**3):
 XXXX=            -21.7320 YYYY=            -69.8870 ZZZZ=            -18.5981 XXXY=             -8.0246
 XXXZ=             -1.6477 YYYX=             -7.6711 YYYZ=             -4.6919 ZZZX=             -1.4146
 ZZZY=             -4.7606 XXYY=            -15.3737 XXZZ=             -6.8336 YYZZ=            -15.0879
 XXYZ=             -1.7930 YYXZ=             -0.2795 ZZXY=             -2.6905
 N-N= 1.144222921477D+01 E-N=-1.156599832507D+02  KE= 4.000729160143D+01
                          Isotropic Fermi Contact Couplings
        Atom                 a.u.       MegaHertz       Gauss      10(-4) cm-1
     1  C(13)              0.06344      35.65788      12.72362      11.89419
     2  H(1)              -0.01006     -22.49392      -8.02639      -7.50317
     3  H(1)              -0.01006     -22.49034      -8.02511      -7.50197
     4  H(1)              -0.01007     -22.50678      -8.03098      -7.50745
     5  H(1)              -0.26726    -597.30458    -213.13312    -199.23936
 --------------------------------------------------------
       Center         ----  Spin Dipole Couplings  ----
                      3XX-RR        3YY-RR        3ZZ-RR
 --------------------------------------------------------
     1   Atom       -0.370534      0.812927     -0.442393
     2   Atom       -0.057286     -0.010425      0.067712
     3   Atom        0.040544     -0.010427     -0.030117
     4   Atom        0.022994      0.007114     -0.030108
     5   Atom       -0.009337      0.020482     -0.011145
 --------------------------------------------------------
                        XY            XZ            YZ
 --------------------------------------------------------
     1   Atom        0.385931      0.070144      0.235949
     2   Atom        0.015282     -0.001479     -0.004979
     3   Atom        0.002524     -0.051579      0.015873
     4   Atom       -0.024340      0.051869     -0.014885
     5   Atom        0.009719      0.001766      0.005945
 --------------------------------------------------------


 ---------------------------------------------------------------------------------
              Anisotropic Spin Dipole Couplings in Principal Axis System
 ---------------------------------------------------------------------------------

       Atom             a.u.   MegaHertz   Gauss  10(-4) cm-1        Axes

              Baa    -0.4853   -65.120   -23.236   -21.722 -0.0635 -0.1602  0.9850
     1 C(13)  Bbb    -0.4853   -65.118   -23.236   -21.721  0.9577 -0.2874  0.0150
              Bcc     0.9705   130.237    46.472    43.443  0.2807  0.9443  0.1716
 
              Baa    -0.0618   -32.989   -11.771   -11.004  0.9585 -0.2850 -0.0000
     2 H(1)   Bbb    -0.0062    -3.333    -1.189    -1.112  0.2843  0.9562  0.0701
              Bcc     0.0681    36.322    12.961    12.116 -0.0200 -0.0672  0.9975
 
              Baa    -0.0618   -32.990   -11.771   -11.004  0.4369 -0.2849  0.8532
     3 H(1)   Bbb    -0.0063    -3.335    -1.190    -1.113  0.1920  0.9562  0.2210
              Bcc     0.0681    36.325    12.962    12.117  0.8788 -0.0673 -0.4725
 
              Baa    -0.0618   -32.988   -11.771   -11.004 -0.5217  0.0000  0.8531
     4 H(1)   Bbb    -0.0062    -3.330    -1.188    -1.111  0.3617  0.9057  0.2212
              Bcc     0.0681    36.318    12.959    12.114  0.7727 -0.4239  0.4725
 
              Baa    -0.0122    -6.523    -2.328    -2.176  0.6868 -0.3225  0.6514
     5 H(1)   Bbb    -0.0122    -6.523    -2.327    -2.176 -0.6705  0.0649  0.7391
              Bcc     0.0245    13.045     4.655     4.351  0.2806  0.9444  0.1716
 

 ---------------------------------------------------------------------------------

 DipInt: DoE/N= T T RetVal/Mat= T F Init=T NMatP=  1 IDeriv=0 Min/MaxMlt=  1  1
 Entering OneElI...
 Multipole integrals L=1 to 1 MinM= 0 MaxM= 0.
 Requested accuracy = 0.1000D-12
 PrsmSu:  NPrtUS=   1 ThrOK=F IAlg=1 NPAlg=1 LenDen=           0.
 Prism:   IPart=     0 DynPar=F LinDyn=F Incr=          12.
 PRISM was handed   419323500 working-precision words and  1275 shell-pairs
 IPart=  0 NShTot=        1275 NBatch=          39 AvBLen=        32.7
 PrSmSu:  NxtVal=             13.
 Entering OneElI...
 Calculate overlap and kinetic energy integrals
    NBasis = 155  MinDer = 1  MaxDer = 1
 Requested accuracy = 0.1000D-12
 PrsmSu:  NPrtUS=  32 ThrOK=T IAlg=1 NPAlg=1 LenDen=           0.
 Prism:   IPart=     0 DynPar=F LinDyn=F Incr=           1.
 PRISM was handed    13082634 working-precision words and  1275 shell-pairs
 PRISM was handed    13082634 working-precision words and  1275 shell-pairs
 PRISM was handed    13082634 working-precision words and  1275 shell-pairs
 PRISM was handed    13082634 working-precision words and  1275 shell-pairs
 PRISM was handed    13082634 working-precision words and  1275 shell-pairs
 PRISM was handed    13082634 working-precision words and  1275 shell-pairs
 PRISM was handed    13082634 working-precision words and  1275 shell-pairs
 PRISM was handed    13082634 working-precision words and  1275 shell-pairs
 PRISM was handed    13082634 working-precision words and  1275 shell-pairs
 PRISM was handed    13082634 working-precision words and  1275 shell-pairs
 PRISM was handed    13082634 working-precision words and  1275 shell-pairs
 PRISM was handed    13082634 working-precision words and  1275 shell-pairs
 PRISM was handed    13082634 working-precision words and  1275 shell-pairs
 PRISM was handed    13082634 working-precision words and  1275 shell-pairs
 PRISM was handed    13082634 working-precision words and  1275 shell-pairs
 PRISM was handed    13082634 working-precision words and  1275 shell-pairs
 PRISM was handed    13082634 working-precision words and  1275 shell-pairs
 PRISM was handed    13082634 working-precision words and  1275 shell-pairs
 PRISM was handed    13082634 working-precision words and  1275 shell-pairs
 PRISM was handed    13082634 working-precision words and  1275 shell-pairs
 PRISM was handed    13082634 working-precision words and  1275 shell-pairs
 PRISM was handed    13082634 working-precision words and  1275 shell-pairs
 PRISM was handed    13082634 working-precision words and  1275 shell-pairs
 PRISM was handed    13082634 working-precision words and  1275 shell-pairs
 PRISM was handed    13082634 working-precision words and  1275 shell-pairs
 PRISM was handed    13082634 working-precision words and  1275 shell-pairs
 PRISM was handed    13082634 working-precision words and  1275 shell-pairs
 PRISM was handed    13082634 working-precision words and  1275 shell-pairs
 PRISM was handed    13082634 working-precision words and  1275 shell-pairs
 PRISM was handed    13082634 working-precision words and  1275 shell-pairs
 PRISM was handed    13082634 working-precision words and  1275 shell-pairs
 PRISM was handed    13082634 working-precision words and  1275 shell-pairs
 IPart=  0 NShTot=          66 NBatch=          37 AvBLen=         1.8
 IPart= 12 NShTot=          40 NBatch=          17 AvBLen=         2.4
 IPart= 27 NShTot=          32 NBatch=          11 AvBLen=         2.9
 IPart= 26 NShTot=          32 NBatch=          11 AvBLen=         2.9
 IPart= 18 NShTot=          35 NBatch=          12 AvBLen=         2.9
 IPart= 24 NShTot=          32 NBatch=          11 AvBLen=         2.9
 IPart= 28 NShTot=          31 NBatch=          11 AvBLen=         2.8
 IPart= 21 NShTot=          35 NBatch=          12 AvBLen=         2.9
 IPart= 13 NShTot=          40 NBatch=          17 AvBLen=         2.4
 IPart=  1 NShTot=          59 NBatch=          31 AvBLen=         1.9
 IPart= 14 NShTot=          40 NBatch=          17 AvBLen=         2.4
 IPart= 17 NShTot=          35 NBatch=          12 AvBLen=         2.9
 IPart= 25 NShTot=          32 NBatch=          11 AvBLen=         2.9
 IPart= 10 NShTot=          45 NBatch=          20 AvBLen=         2.3
 IPart=  6 NShTot=          46 NBatch=          21 AvBLen=         2.2
 IPart= 23 NShTot=          34 NBatch=          11 AvBLen=         3.1
 IPart= 31 NShTot=          29 NBatch=           9 AvBLen=         3.2
 IPart= 16 NShTot=          35 NBatch=          12 AvBLen=         2.9
 IPart=  2 NShTot=          55 NBatch=          28 AvBLen=         2.0
 IPart= 22 NShTot=          34 NBatch=          11 AvBLen=         3.1
 IPart=  8 NShTot=          45 NBatch=          20 AvBLen=         2.3
 IPart=  4 NShTot=          49 NBatch=          22 AvBLen=         2.2
 IPart=  5 NShTot=          46 NBatch=          21 AvBLen=         2.2
 IPart=  3 NShTot=          50 NBatch=          23 AvBLen=         2.2
 IPart= 19 NShTot=          35 NBatch=          12 AvBLen=         2.9
 IPart= 20 NShTot=          35 NBatch=          12 AvBLen=         2.9
 IPart= 15 NShTot=          36 NBatch=          13 AvBLen=         2.8
 IPart=  7 NShTot=          46 NBatch=          21 AvBLen=         2.2
 IPart= 29 NShTot=          31 NBatch=          11 AvBLen=         2.8
 IPart=  9 NShTot=          45 NBatch=          20 AvBLen=         2.3
 IPart= 11 NShTot=          41 NBatch=          17 AvBLen=         2.4
 IPart= 30 NShTot=          29 NBatch=           9 AvBLen=         3.2
 PrSmSu:  NxtVal=             33.
 Entering OneElI...
 Calculate potential energy integrals
    NBasis = 155  MinDer = 1  MaxDer = 1
 Requested accuracy = 0.1000D-12
 PrsmSu:  NPrtUS=  32 ThrOK=T IAlg=1 NPAlg=1 LenDen=           0.
 Prism:   IPart=     0 DynPar=F LinDyn=F Incr=           1.
 PRISM was handed    13083975 working-precision words and  1275 shell-pairs
 PRISM was handed    13083975 working-precision words and  1275 shell-pairs
 PRISM was handed    13083975 working-precision words and  1275 shell-pairs
 PRISM was handed    13083975 working-precision words and  1275 shell-pairs
 PRISM was handed    13083975 working-precision words and  1275 shell-pairs
 PRISM was handed    13083975 working-precision words and  1275 shell-pairs
 PRISM was handed    13083975 working-precision words and  1275 shell-pairs
 PRISM was handed    13083975 working-precision words and  1275 shell-pairs
 PRISM was handed    13083975 working-precision words and  1275 shell-pairs
 PRISM was handed    13083975 working-precision words and  1275 shell-pairs
 PRISM was handed    13083975 working-precision words and  1275 shell-pairs
 PRISM was handed    13083975 working-precision words and  1275 shell-pairs
 PRISM was handed    13083975 working-precision words and  1275 shell-pairs
 PRISM was handed    13083975 working-precision words and  1275 shell-pairs
 PRISM was handed    13083975 working-precision words and  1275 shell-pairs
 PRISM was handed    13083975 working-precision words and  1275 shell-pairs
 PRISM was handed    13083975 working-precision words and  1275 shell-pairs
 PRISM was handed    13083975 working-precision words and  1275 shell-pairs
 PRISM was handed    13083975 working-precision words and  1275 shell-pairs
 PRISM was handed    13083975 working-precision words and  1275 shell-pairs
 PRISM was handed    13083975 working-precision words and  1275 shell-pairs
 PRISM was handed    13083975 working-precision words and  1275 shell-pairs
 PRISM was handed    13083975 working-precision words and  1275 shell-pairs
 PRISM was handed    13083975 working-precision words and  1275 shell-pairs
 PRISM was handed    13083975 working-precision words and  1275 shell-pairs
 PRISM was handed    13083975 working-precision words and  1275 shell-pairs
 PRISM was handed    13083975 working-precision words and  1275 shell-pairs
 PRISM was handed    13083975 working-precision words and  1275 shell-pairs
 PRISM was handed    13083975 working-precision words and  1275 shell-pairs
 PRISM was handed    13083975 working-precision words and  1275 shell-pairs
 PRISM was handed    13083975 working-precision words and  1275 shell-pairs
 PRISM was handed    13083975 working-precision words and  1275 shell-pairs
 IPart= 30 NShTot=         145 NBatch=          29 AvBLen=         5.0
 IPart= 15 NShTot=         175 NBatch=          35 AvBLen=         5.0
 IPart= 11 NShTot=         200 NBatch=          40 AvBLen=         5.0
 IPart= 17 NShTot=         175 NBatch=          35 AvBLen=         5.0
 IPart=  3 NShTot=         255 NBatch=          51 AvBLen=         5.0
 IPart=  9 NShTot=         215 NBatch=          43 AvBLen=         5.0
 IPart= 31 NShTot=         145 NBatch=          29 AvBLen=         5.0
 IPart= 26 NShTot=         165 NBatch=          33 AvBLen=         5.0
 IPart= 20 NShTot=         175 NBatch=          35 AvBLen=         5.0
 IPart= 22 NShTot=         170 NBatch=          34 AvBLen=         5.0
 IPart= 28 NShTot=         155 NBatch=          31 AvBLen=         5.0
 IPart= 24 NShTot=         165 NBatch=          33 AvBLen=         5.0
 IPart=  7 NShTot=         230 NBatch=          46 AvBLen=         5.0
 IPart= 29 NShTot=         155 NBatch=          31 AvBLen=         5.0
 IPart= 13 NShTot=         200 NBatch=          40 AvBLen=         5.0
 IPart=  5 NShTot=         235 NBatch=          47 AvBLen=         5.0
 IPart=  1 NShTot=         300 NBatch=          60 AvBLen=         5.0
 IPart= 12 NShTot=         200 NBatch=          40 AvBLen=         5.0
 IPart=  4 NShTot=         245 NBatch=          49 AvBLen=         5.0
 IPart= 25 NShTot=         165 NBatch=          33 AvBLen=         5.0
 IPart= 10 NShTot=         210 NBatch=          42 AvBLen=         5.0
 IPart= 23 NShTot=         170 NBatch=          34 AvBLen=         5.0
 IPart=  2 NShTot=         280 NBatch=          56 AvBLen=         5.0
 IPart= 19 NShTot=         175 NBatch=          35 AvBLen=         5.0
 IPart= 14 NShTot=         185 NBatch=          37 AvBLen=         5.0
 IPart=  0 NShTot=         355 NBatch=          71 AvBLen=         5.0
 IPart= 27 NShTot=         160 NBatch=          32 AvBLen=         5.0
 IPart= 18 NShTot=         175 NBatch=          35 AvBLen=         5.0
 IPart= 16 NShTot=         175 NBatch=          35 AvBLen=         5.0
 IPart=  8 NShTot=         215 NBatch=          43 AvBLen=         5.0
 IPart= 21 NShTot=         175 NBatch=          35 AvBLen=         5.0
 IPart=  6 NShTot=         230 NBatch=          46 AvBLen=         5.0
 PrSmSu:  NxtVal=             33.
 l701 out
 I=    0 X=   9.388545272293D-02 Y=   3.158677490681D-01 Z=   5.741051871566D-02
 I=    1 X=  -2.165967624610D-01 Y=  -7.291049396384D-01 Z=  -1.323819837242D-01
 I=    2 X=   7.656502919334D-03 Y=   2.610841600055D-02 Z=   2.370861814186D+00
 I=    3 X=   2.113667733980D+00 Y=   2.613192389234D-02 Z=  -1.073673525877D+00
 I=    4 X=  -1.756239256214D+00 Y=   1.176554765869D+00 Z=  -1.073988590176D+00
 I=    5 X=  -1.484882182245D-01 Y=  -4.996901661239D-01 Z=  -9.081771440852D-02
 ICntrl=      2127.
 Calling FoFJK, ICntrl=      2127 FMM=F ISym2X=0 I1Cent= 0 IOpClX= 1 NMat=1 NMatS=1 NMatT=0.
 FoFJK:  IHMeth= 1 ICntrl=    2127 DoSepK=T KAlg= 0 I1Cent=   0 FoldK=F
 IRaf=         1 NMat=   1 IRICut=       1 DoRegI=T DoRafI=F ISym2E= 0.
 FoFCou: FMM=F IPFlag=           0 FMFlag=      100000 FMFlg1=         800
         NFxFlg=           0 DoJE=F BraDBF=F KetDBF=F FulRan=T
         wScrn=  0.000000 ICntrl=    2527 IOpCl=  0 I1Cent=           0 NGrid=           0
         NMat0=    1 NMatS0=      1 NMatT0=    0 NMatD0=    1 NMtDS0=    0 NMtDT0=    0
 Symmetry not used in FoFCou.
 FoFCou:  KetSym=F NOpSet=  1 NOpAb=1 NOp=  1.
 FoFCou:  CnvScl= 1.00D+00 Thresh= 1.00D-10 IAcrcy=      10.
 PrismS was handed   419298442 working-precision words and  1275 shell-pairs
 FoFCou: LinMIO=F DoNuc=F BraDBF=F KetDBF=F HaveP=T PDBF=F HaveZ=T HaveW=F
         NIJTC =      10 NIJTAt=       0 NIJTCD=       0 NIJTT =      10
         IJTBeg=       1 IJTEnd=      10 KLTBeg=       1 KLTEnd=      10
         IPTBeg=       1 IPTEnd=      10 IPTBCv=       1 IPTECv=      10
         IZTBeg=       1 IZTEnd=      10 IZTBCv=       1 IZTECv=      10
         IWTBeg=      11 IWTEnd=      10 IWTBCv=      11 IWTECv=      10
         INTBeg=       1 INTEnd=       0 IFTBCv=       1 IFTECv=      10
 NCel replicated for PrismC:     1
 CoulSu:  IncDef=  1024 NBBP=         813450 NTPThr=   100 NPartT=   32 Incr=         254 LDynOK=F.
 CoulSu:  NPrtUS=  32 ThrOK=T IAlg=1 NPAlg=1 LenDen=           0 LWGrdD=           0 DoCopy=F.
 Enter PrismC: JobTyp=21 DoJE=F Cont=F.
 PrismC:  IPart=     0 DynPar=T LinDyn=F Incr=         254 UseFst=F UseS4=T IGathr=2.
 Enter PrismC: JobTyp=21 DoJE=F Cont=F.
 Enter PrismC: JobTyp=21 DoJE=F Cont=F.
 Enter PrismC: JobTyp=21 DoJE=F Cont=F.
 Enter PrismC: JobTyp=21 DoJE=F Cont=F.
 Enter PrismC: JobTyp=21 DoJE=F Cont=F.
 PrismC was handed    13082897 working-precision words and  1275 shell-pairs
 PrismC was handed    13082897 working-precision words and  1275 shell-pairs
 Enter PrismC: JobTyp=21 DoJE=F Cont=F.
 Enter PrismC: JobTyp=21 DoJE=F Cont=F.
 Enter PrismC: JobTyp=21 DoJE=F Cont=F.
 Enter PrismC: JobTyp=21 DoJE=F Cont=F.
 Enter PrismC: JobTyp=21 DoJE=F Cont=F.
 Enter PrismC: JobTyp=21 DoJE=F Cont=F.
 Enter PrismC: JobTyp=21 DoJE=F Cont=F.
 Enter PrismC: JobTyp=21 DoJE=F Cont=F.
 Enter PrismC: JobTyp=21 DoJE=F Cont=F.
 Enter PrismC: JobTyp=21 DoJE=F Cont=F.
 Enter PrismC: JobTyp=21 DoJE=F Cont=F.
 Enter PrismC: JobTyp=21 DoJE=F Cont=F.
 Enter PrismC: JobTyp=21 DoJE=F Cont=F.
 Enter PrismC: JobTyp=21 DoJE=F Cont=F.
 Enter PrismC: JobTyp=21 DoJE=F Cont=F.
 Enter PrismC: JobTyp=21 DoJE=F Cont=F.
 Enter PrismC: JobTyp=21 DoJE=F Cont=F.
 PrismC was handed    13082897 working-precision words and  1275 shell-pairs
 Enter PrismC: JobTyp=21 DoJE=F Cont=F.
 PrismC was handed    13082897 working-precision words and  1275 shell-pairs
 Enter PrismC: JobTyp=21 DoJE=F Cont=F.
 PrismC was handed    13082897 working-precision words and  1275 shell-pairs
 Enter PrismC: JobTyp=21 DoJE=F Cont=F.
 PrismC was handed    13082897 working-precision words and  1275 shell-pairs
 Enter PrismC: JobTyp=21 DoJE=F Cont=F.
 PrismC was handed    13082897 working-precision words and  1275 shell-pairs
 Enter PrismC: JobTyp=21 DoJE=F Cont=F.
 PrismC was handed    13082897 working-precision words and  1275 shell-pairs
 Enter PrismC: JobTyp=21 DoJE=F Cont=F.
 PrismC was handed    13082897 working-precision words and  1275 shell-pairs
 Enter PrismC: JobTyp=21 DoJE=F Cont=F.
 PrismC was handed    13082897 working-precision words and  1275 shell-pairs
 Enter PrismC: JobTyp=21 DoJE=F Cont=F.
 PrismC was handed    13082897 working-precision words and  1275 shell-pairs
 PrismC was handed    13082897 working-precision words and  1275 shell-pairs
 PrismC was handed    13082897 working-precision words and  1275 shell-pairs
 PrismC was handed    13082897 working-precision words and  1275 shell-pairs
 Enter PrismC: JobTyp=21 DoJE=F Cont=F.
 PrismC was handed    13082897 working-precision words and  1275 shell-pairs
 PrismC was handed    13082897 working-precision words and  1275 shell-pairs
 PrismC was handed    13082897 working-precision words and  1275 shell-pairs
 PrismC was handed    13082897 working-precision words and  1275 shell-pairs
 PrismC was handed    13082897 working-precision words and  1275 shell-pairs
 PrismC was handed    13082897 working-precision words and  1275 shell-pairs
 PrismC was handed    13082897 working-precision words and  1275 shell-pairs
 PrismC was handed    13082897 working-precision words and  1275 shell-pairs
 PrismC was handed    13082897 working-precision words and  1275 shell-pairs
 PrismC was handed    13082897 working-precision words and  1275 shell-pairs
 PrismC was handed    13082897 working-precision words and  1275 shell-pairs
 PrismC was handed    13082897 working-precision words and  1275 shell-pairs
 PrismC was handed    13082897 working-precision words and  1275 shell-pairs
 PrismC was handed    13082897 working-precision words and  1275 shell-pairs
 PrismC was handed    13082897 working-precision words and  1275 shell-pairs
 PrismC was handed    13082897 working-precision words and  1275 shell-pairs
 PrismC was handed    13082897 working-precision words and  1275 shell-pairs
 PrismC was handed    13082897 working-precision words and  1275 shell-pairs
 IPart= 26 NShTot=       25593 NShNF=       25593 NShFF=           0 NBatch=         249 AvBLen=       102.8
 IPart= 11 NShTot=       24089 NShNF=       24089 NShFF=           0 NBatch=         259 AvBLen=        93.0
 IPart= 23 NShTot=       25406 NShNF=       25406 NShFF=           0 NBatch=         257 AvBLen=        98.9
 IPart= 20 NShTot=       23784 NShNF=       23784 NShFF=           0 NBatch=         256 AvBLen=        92.9
 IPart=  1 NShTot=       24123 NShNF=       24123 NShFF=           0 NBatch=         268 AvBLen=        90.0
 IPart= 18 NShTot=       22833 NShNF=       22833 NShFF=           0 NBatch=         257 AvBLen=        88.8
 IPart= 17 NShTot=       27059 NShNF=       27059 NShFF=           0 NBatch=         241 AvBLen=       112.3
 IPart= 28 NShTot=       22827 NShNF=       22827 NShFF=           0 NBatch=         279 AvBLen=        81.8
 IPart= 25 NShTot=       25229 NShNF=       25229 NShFF=           0 NBatch=         240 AvBLen=       105.1
 IPart=  7 NShTot=       23158 NShNF=       23158 NShFF=           0 NBatch=         257 AvBLen=        90.1
 IPart= 24 NShTot=       27919 NShNF=       27919 NShFF=           0 NBatch=         254 AvBLen=       109.9
 IPart= 30 NShTot=       24072 NShNF=       24072 NShFF=           0 NBatch=         255 AvBLen=        94.4
 IPart= 14 NShTot=       20795 NShNF=       20795 NShFF=           0 NBatch=         164 AvBLen=       126.8
 IPart=  3 NShTot=       24484 NShNF=       24484 NShFF=           0 NBatch=         262 AvBLen=        93.5
 IPart=  9 NShTot=       23767 NShNF=       23767 NShFF=           0 NBatch=         255 AvBLen=        93.2
 IPart=  0 NShTot=       23843 NShNF=       23843 NShFF=           0 NBatch=         191 AvBLen=       124.8
 IPart=  5 NShTot=       26389 NShNF=       26389 NShFF=           0 NBatch=         265 AvBLen=        99.6
 IPart= 12 NShTot=       25426 NShNF=       25426 NShFF=           0 NBatch=         232 AvBLen=       109.6
 IPart= 10 NShTot=       24452 NShNF=       24452 NShFF=           0 NBatch=         254 AvBLen=        96.3
 IPart= 22 NShTot=       27776 NShNF=       27776 NShFF=           0 NBatch=         267 AvBLen=       104.0
 IPart=  2 NShTot=       21885 NShNF=       21885 NShFF=           0 NBatch=         247 AvBLen=        88.6
 IPart=  4 NShTot=       22194 NShNF=       22194 NShFF=           0 NBatch=         254 AvBLen=        87.4
 IPart=  8 NShTot=       24228 NShNF=       24228 NShFF=           0 NBatch=         245 AvBLen=        98.9
 IPart= 13 NShTot=       23609 NShNF=       23609 NShFF=           0 NBatch=         262 AvBLen=        90.1
 IPart= 21 NShTot=       26040 NShNF=       26040 NShFF=           0 NBatch=         252 AvBLen=       103.3
 IPart= 27 NShTot=       26050 NShNF=       26050 NShFF=           0 NBatch=         198 AvBLen=       131.6
 IPart=  6 NShTot=       21545 NShNF=       21545 NShFF=           0 NBatch=         234 AvBLen=        92.1
 IPart= 29 NShTot=       24279 NShNF=       24279 NShFF=           0 NBatch=         249 AvBLen=        97.5
 IPart= 15 NShTot=       26135 NShNF=       26135 NShFF=           0 NBatch=         254 AvBLen=       102.9
 IPart= 31 NShTot=       25521 NShNF=       25521 NShFF=           0 NBatch=         245 AvBLen=       104.2
 IPart= 16 NShTot=       22828 NShNF=       22828 NShFF=           0 NBatch=         255 AvBLen=        89.5
 IPart= 19 NShTot=       26412 NShNF=       26412 NShFF=           0 NBatch=         243 AvBLen=       108.7
 CoulSu:  NxtVal=         898653.
 FoFCou: FMM=F IPFlag=           0 FMFlag=      100000 FMFlg1=         800
         NFxFlg=           0 DoJE=F BraDBF=F KetDBF=F FulRan=T
         wScrn=  0.000000 ICntrl=    2127 IOpCl=  1 I1Cent=           0 NGrid=           0
         NMat0=    1 NMatS0=      0 NMatT0=    1 NMatD0=    1 NMtDS0=    0 NMtDT0=    0
         CW=    0.222036    0.777964
         WU=    0.000000   12.500000
 Symmetry not used in FoFCou.
 FoFCou:  KetSym=F NOpSet=  1 NOpAb=1 NOp=  1.
 FoFCou:  CnvScl= 1.00D+00 Thresh= 1.00D-10 IAcrcy=      10.
 PrismS was handed   419297202 working-precision words and  1275 shell-pairs
 FoFCou: LinMIO=F DoNuc=F BraDBF=F KetDBF=F HaveP=T PDBF=F HaveZ=T HaveW=F
         NIJTC =      10 NIJTAt=       0 NIJTCD=       0 NIJTT =      10
         IJTBeg=       1 IJTEnd=      10 KLTBeg=       1 KLTEnd=      10
         IPTBeg=       1 IPTEnd=      10 IPTBCv=       1 IPTECv=      10
         IZTBeg=       1 IZTEnd=      10 IZTBCv=       1 IZTECv=      10
         IWTBeg=      11 IWTEnd=      10 IWTBCv=      11 IWTECv=      10
         INTBeg=       1 INTEnd=       0 IFTBCv=       1 IFTECv=      10
 NCel replicated for PrismC:     1
 CoulSu:  IncDef=  1024 NBBP=         813450 NTPThr=   100 NPartT=   32 Incr=         254 LDynOK=F.
 CoulSu:  NPrtUS=  32 ThrOK=T IAlg=1 NPAlg=1 LenDen=           0 LWGrdD=           0 DoCopy=F.
 Enter PrismC: JobTyp=21 DoJE=F Cont=F.
 Linear combination for Coulomb/exchange, wScrn=  0.000000
 CW=    0.222036    0.777964
 Enter PrismC: JobTyp=21 DoJE=F Cont=F.
 Linear combination for Coulomb/exchange, wScrn=  0.000000
 Enter PrismC: JobTyp=21 DoJE=F Cont=F.
 Enter PrismC: JobTyp=21 DoJE=F Cont=F.
 Linear combination for Coulomb/exchange, wScrn=  0.000000
 CW=    0.222036    0.777964
 WU=    0.000000   12.500000
 Enter PrismC: JobTyp=21 DoJE=F Cont=F.
 Linear combination for Coulomb/exchange, wScrn=  0.000000
 CW=    0.222036    0.777964
 WU=    0.000000   12.500000
 Enter PrismC: JobTyp=21 DoJE=F Cont=F.
 Linear combination for Coulomb/exchange, wScrn=  0.000000
 CW=    0.222036    0.777964
 WU=    0.000000   12.500000
 Enter PrismC: JobTyp=21 DoJE=F Cont=F.
 Linear combination for Coulomb/exchange, wScrn=  0.000000
 CW=    0.222036    0.777964
 WU=    0.000000   12.500000
 Enter PrismC: JobTyp=21 DoJE=F Cont=F.
 Linear combination for Coulomb/exchange, wScrn=  0.000000
 CW=    0.222036    0.777964
 WU=    0.000000   12.500000
 Enter PrismC: JobTyp=21 DoJE=F Cont=F.
 Linear combination for Coulomb/exchange, wScrn=  0.000000
 CW=    0.222036    0.777964
 WU=    0.000000   12.500000
 Enter PrismC: JobTyp=21 DoJE=F Cont=F.
 Linear combination for Coulomb/exchange, wScrn=  0.000000
 CW=    0.222036    0.777964
 WU=    0.000000   12.500000
 CW=    0.222036    0.777964
 WU=    0.000000   12.500000
 PrismC was handed    13082858 working-precision words and  1275 shell-pairs
 Enter PrismC: JobTyp=21 DoJE=F Cont=F.
 Linear combination for Coulomb/exchange, wScrn=  0.000000
 CW=    0.222036    0.777964
 WU=    0.000000   12.500000
 PrismC was handed    13082858 working-precision words and  1275 shell-pairs
 WU=    0.000000   12.500000
 Enter PrismC: JobTyp=21 DoJE=F Cont=F.
 Linear combination for Coulomb/exchange, wScrn=  0.000000
 CW=    0.222036    0.777964
 WU=    0.000000   12.500000
 Enter PrismC: JobTyp=21 DoJE=F Cont=F.
 Linear combination for Coulomb/exchange, wScrn=  0.000000
 CW=    0.222036    0.777964
 WU=    0.000000   12.500000
 Enter PrismC: JobTyp=21 DoJE=F Cont=F.
 Linear combination for Coulomb/exchange, wScrn=  0.000000
 CW=    0.222036    0.777964
 WU=    0.000000   12.500000
 Enter PrismC: JobTyp=21 DoJE=F Cont=F.
 Linear combination for Coulomb/exchange, wScrn=  0.000000
 CW=    0.222036    0.777964
 WU=    0.000000   12.500000
 Enter PrismC: JobTyp=21 DoJE=F Cont=F.
 Linear combination for Coulomb/exchange, wScrn=  0.000000
 CW=    0.222036    0.777964
 WU=    0.000000   12.500000
 Enter PrismC: JobTyp=21 DoJE=F Cont=F.
 Linear combination for Coulomb/exchange, wScrn=  0.000000
 CW=    0.222036    0.777964
 WU=    0.000000   12.500000
 Linear combination for Coulomb/exchange, wScrn=  0.000000
 CW=    0.222036    0.777964
 WU=    0.000000   12.500000
 Enter PrismC: JobTyp=21 DoJE=F Cont=F.
 Linear combination for Coulomb/exchange, wScrn=  0.000000
 CW=    0.222036    0.777964
 WU=    0.000000   12.500000
 PrismC was handed    13082858 working-precision words and  1275 shell-pairs
 Enter PrismC: JobTyp=21 DoJE=F Cont=F.
 Linear combination for Coulomb/exchange, wScrn=  0.000000
 CW=    0.222036    0.777964
 WU=    0.000000   12.500000
 Enter PrismC: JobTyp=21 DoJE=F Cont=F.
 Linear combination for Coulomb/exchange, wScrn=  0.000000
 CW=    0.222036    0.777964
 WU=    0.000000   12.500000
 Enter PrismC: JobTyp=21 DoJE=F Cont=F.
 Linear combination for Coulomb/exchange, wScrn=  0.000000
 CW=    0.222036    0.777964
 WU=    0.000000   12.500000
 Enter PrismC: JobTyp=21 DoJE=F Cont=F.
 Linear combination for Coulomb/exchange, wScrn=  0.000000
 CW=    0.222036    0.777964
 WU=    0.000000   12.500000
 Enter PrismC: JobTyp=21 DoJE=F Cont=F.
 Linear combination for Coulomb/exchange, wScrn=  0.000000
 CW=    0.222036    0.777964
 WU=    0.000000   12.500000
 Enter PrismC: JobTyp=21 DoJE=F Cont=F.
 Linear combination for Coulomb/exchange, wScrn=  0.000000
 CW=    0.222036    0.777964
 WU=    0.000000   12.500000
 PrismC was handed    13082858 working-precision words and  1275 shell-pairs
 PrismC was handed    13082858 working-precision words and  1275 shell-pairs
 PrismC:  IPart=     0 DynPar=T LinDyn=F Incr=         254 UseFst=F UseS4=T IGathr=2.
 PrismC was handed    13082858 working-precision words and  1275 shell-pairs
 PrismC was handed    13082858 working-precision words and  1275 shell-pairs
 PrismC was handed    13082858 working-precision words and  1275 shell-pairs
 Enter PrismC: JobTyp=21 DoJE=F Cont=F.
 Linear combination for Coulomb/exchange, wScrn=  0.000000
 CW=    0.222036    0.777964
 WU=    0.000000   12.500000
 Enter PrismC: JobTyp=21 DoJE=F Cont=F.
 Linear combination for Coulomb/exchange, wScrn=  0.000000
 CW=    0.222036    0.777964
 WU=    0.000000   12.500000
 Enter PrismC: JobTyp=21 DoJE=F Cont=F.
 Linear combination for Coulomb/exchange, wScrn=  0.000000
 CW=    0.222036    0.777964
 WU=    0.000000   12.500000
 PrismC was handed    13082858 working-precision words and  1275 shell-pairs
 PrismC was handed    13082858 working-precision words and  1275 shell-pairs
 PrismC was handed    13082858 working-precision words and  1275 shell-pairs
 PrismC was handed    13082858 working-precision words and  1275 shell-pairs
 Enter PrismC: JobTyp=21 DoJE=F Cont=F.
 PrismC was handed    13082858 working-precision words and  1275 shell-pairs
 PrismC was handed    13082858 working-precision words and  1275 shell-pairs
 PrismC was handed    13082858 working-precision words and  1275 shell-pairs
 Enter PrismC: JobTyp=21 DoJE=F Cont=F.
 Enter PrismC: JobTyp=21 DoJE=F Cont=F.
 Linear combination for Coulomb/exchange, wScrn=  0.000000
 CW=    0.222036    0.777964
 WU=    0.000000   12.500000
 PrismC was handed    13082858 working-precision words and  1275 shell-pairs
 PrismC was handed    13082858 working-precision words and  1275 shell-pairs
 PrismC was handed    13082858 working-precision words and  1275 shell-pairs
 PrismC was handed    13082858 working-precision words and  1275 shell-pairs
 PrismC was handed    13082858 working-precision words and  1275 shell-pairs
 PrismC was handed    13082858 working-precision words and  1275 shell-pairs
 PrismC was handed    13082858 working-precision words and  1275 shell-pairs
 PrismC was handed    13082858 working-precision words and  1275 shell-pairs
 PrismC was handed    13082858 working-precision words and  1275 shell-pairs
 PrismC was handed    13082858 working-precision words and  1275 shell-pairs
 Enter PrismC: JobTyp=21 DoJE=F Cont=F.
 Linear combination for Coulomb/exchange, wScrn=  0.000000
 CW=    0.222036    0.777964
 WU=    0.000000   12.500000
 PrismC was handed    13082858 working-precision words and  1275 shell-pairs
 PrismC was handed    13082858 working-precision words and  1275 shell-pairs
 PrismC was handed    13082858 working-precision words and  1275 shell-pairs
 Linear combination for Coulomb/exchange, wScrn=  0.000000
 CW=    0.222036    0.777964
 WU=    0.000000   12.500000
 PrismC was handed    13082858 working-precision words and  1275 shell-pairs
 Linear combination for Coulomb/exchange, wScrn=  0.000000
 CW=    0.222036    0.777964
 WU=    0.000000   12.500000
 PrismC was handed    13082858 working-precision words and  1275 shell-pairs
 Enter PrismC: JobTyp=21 DoJE=F Cont=F.
 Linear combination for Coulomb/exchange, wScrn=  0.000000
 CW=    0.222036    0.777964
 WU=    0.000000   12.500000
 PrismC was handed    13082858 working-precision words and  1275 shell-pairs
 PrismC was handed    13082858 working-precision words and  1275 shell-pairs
 IPart= 28 NShTot=       22511 NShNF=       22511 NShFF=           0 NBatch=         281 AvBLen=        80.1
 IPart=  8 NShTot=       23126 NShNF=       23126 NShFF=           0 NBatch=         260 AvBLen=        88.9
 IPart= 30 NShTot=       22118 NShNF=       22118 NShFF=           0 NBatch=         311 AvBLen=        71.1
 IPart= 21 NShTot=       27652 NShNF=       27652 NShFF=           0 NBatch=         256 AvBLen=       108.0
 IPart= 15 NShTot=       24804 NShNF=       24804 NShFF=           0 NBatch=         248 AvBLen=       100.0
 IPart= 14 NShTot=       23506 NShNF=       23506 NShFF=           0 NBatch=         323 AvBLen=        72.8
 IPart=  5 NShTot=       25989 NShNF=       25989 NShFF=           0 NBatch=         302 AvBLen=        86.1
 IPart= 26 NShTot=       22415 NShNF=       22415 NShFF=           0 NBatch=         324 AvBLen=        69.2
 IPart= 24 NShTot=       24061 NShNF=       24061 NShFF=           0 NBatch=         320 AvBLen=        75.2
 IPart= 17 NShTot=       23189 NShNF=       23189 NShFF=           0 NBatch=         286 AvBLen=        81.1
 IPart= 10 NShTot=       23597 NShNF=       23597 NShFF=           0 NBatch=         261 AvBLen=        90.4
 IPart= 25 NShTot=       25076 NShNF=       25076 NShFF=           0 NBatch=         292 AvBLen=        85.9
 IPart= 23 NShTot=       23183 NShNF=       23183 NShFF=           0 NBatch=         312 AvBLen=        74.3
 IPart=  4 NShTot=       23703 NShNF=       23703 NShFF=           0 NBatch=         314 AvBLen=        75.5
 IPart= 31 NShTot=       20029 NShNF=       20029 NShFF=           0 NBatch=         233 AvBLen=        86.0
 IPart=  9 NShTot=       27902 NShNF=       27902 NShFF=           0 NBatch=         268 AvBLen=       104.1
 IPart=  6 NShTot=       27747 NShNF=       27747 NShFF=           0 NBatch=         267 AvBLen=       103.9
 IPart= 22 NShTot=       22434 NShNF=       22434 NShFF=           0 NBatch=         285 AvBLen=        78.7
 IPart=  2 NShTot=       23556 NShNF=       23556 NShFF=           0 NBatch=         325 AvBLen=        72.5
 IPart= 11 NShTot=       24542 NShNF=       24542 NShFF=           0 NBatch=         330 AvBLen=        74.4
 IPart= 18 NShTot=       20910 NShNF=       20910 NShFF=           0 NBatch=         205 AvBLen=       102.0
 IPart=  3 NShTot=       23841 NShNF=       23841 NShFF=           0 NBatch=         266 AvBLen=        89.6
 IPart= 27 NShTot=       26124 NShNF=       26124 NShFF=           0 NBatch=         308 AvBLen=        84.8
 IPart=  1 NShTot=       26388 NShNF=       26388 NShFF=           0 NBatch=         327 AvBLen=        80.7
 IPart=  0 NShTot=       21678 NShNF=       21678 NShFF=           0 NBatch=         264 AvBLen=        82.1
 IPart= 13 NShTot=       29657 NShNF=       29657 NShFF=           0 NBatch=         316 AvBLen=        93.9
 IPart= 12 NShTot=       24639 NShNF=       24639 NShFF=           0 NBatch=         318 AvBLen=        77.5
 IPart=  7 NShTot=       22783 NShNF=       22783 NShFF=           0 NBatch=         331 AvBLen=        68.8
 IPart= 29 NShTot=       28220 NShNF=       28220 NShFF=           0 NBatch=         316 AvBLen=        89.3
 IPart= 19 NShTot=       28990 NShNF=       28990 NShFF=           0 NBatch=         323 AvBLen=        89.8
 IPart= 20 NShTot=       23684 NShNF=       23684 NShFF=           0 NBatch=         281 AvBLen=        84.3
 IPart= 16 NShTot=       25096 NShNF=       25096 NShFF=           0 NBatch=         322 AvBLen=        77.9
 CoulSu:  NxtVal=         898653.
 ReadGW:  IGet=0 IStart=           1 Next=           1 LGW=           0.
 Remaining memory in FofDFT      399.95 Mw
 CkSvGd:  ISavGI=        -1 IRadAn=       5 IRASav=       5 ISavGd=        -1.
 CalDSu:  NPrtUS=  32 ThrOK=T IAlg=1 NPAlg=2 DoDPD=T LenP=       12090 LenD1P=             0.
 IPart=  0 IRanGd=          0 ScrnBf=T ScrnGd=T RCrit=4.00D+00 DoMicB=T.
 IPart= 31         2714 of         2992 points in       3 batches and       25 microbatches, Max-NSigAt=       5 Max-NSgAt2=       5
 IPart= 13         3435 of         3870 points in       5 batches and       22 microbatches, Max-NSigAt=       5 Max-NSgAt2=       5
 IPart= 24         2533 of         2538 points in       2 batches and        7 microbatches, Max-NSigAt=       5 Max-NSgAt2=       5
 IPart= 10         2988 of         3160 points in       3 batches and        7 microbatches, Max-NSigAt=       5 Max-NSgAt2=       5
 IPart= 28         3192 of         3568 points in       4 batches and       21 microbatches, Max-NSigAt=       5 Max-NSgAt2=       5
 IPart=  2         2843 of         2964 points in       3 batches and        7 microbatches, Max-NSigAt=       5 Max-NSgAt2=       5
 IPart=  6         3458 of         3968 points in       5 batches and       36 microbatches, Max-NSigAt=       5 Max-NSgAt2=       5
 IPart=  0         2881 of         2968 points in       3 batches and        7 microbatches, Max-NSigAt=       5 Max-NSgAt2=       5
 IPart= 16         2682 of         2964 points in       3 batches and       28 microbatches, Max-NSigAt=       5 Max-NSgAt2=       5
 IPart=  3         3135 of         3568 points in       4 batches and       26 microbatches, Max-NSigAt=       5 Max-NSgAt2=       5
 IPart= 26         2699 of         2732 points in       2 batches and        9 microbatches, Max-NSigAt=       5 Max-NSgAt2=       5
 IPart= 30         3060 of         3160 points in       3 batches and       20 microbatches, Max-NSigAt=       5 Max-NSgAt2=       5
 IPart=  1         3556 of         3940 points in       4 batches and       12 microbatches, Max-NSigAt=       5 Max-NSgAt2=       5
 IPart=  9         3151 of         3246 points in       3 batches and       29 microbatches, Max-NSigAt=       5 Max-NSgAt2=       5
 IPart= 19         3360 of         3596 points in       4 batches and       23 microbatches, Max-NSigAt=       5 Max-NSgAt2=       5
 IPart= 21         3637 of         4228 points in       6 batches and       81 microbatches, Max-NSigAt=       5 Max-NSgAt2=       5
 IPart= 11         3280 of         3596 points in       4 batches and       38 microbatches, Max-NSigAt=       5 Max-NSgAt2=       5
 IPart= 20         3658 of         4200 points in       6 batches and       46 microbatches, Max-NSigAt=       5 Max-NSgAt2=       5
 IPart= 27         3881 of         4172 points in       4 batches and       11 microbatches, Max-NSigAt=       5 Max-NSgAt2=       5
 IPart=  5         4024 of         4200 points in       4 batches and       10 microbatches, Max-NSigAt=       5 Max-NSgAt2=       5
 IPart= 17         3520 of         3540 points in       3 batches and        9 microbatches, Max-NSigAt=       5 Max-NSgAt2=       5
 IPart= 15         4055 of         4454 points in       5 batches and       25 microbatches, Max-NSigAt=       5 Max-NSgAt2=       5
 IPart=  4         4133 of         4396 points in       4 batches and       10 microbatches, Max-NSigAt=       5 Max-NSgAt2=       5
 IPart= 14         3370 of         3552 points in       4 batches and       26 microbatches, Max-NSigAt=       5 Max-NSgAt2=       5
 IPart=  7         3568 of         3568 points in       3 batches and        9 microbatches, Max-NSigAt=       5 Max-NSgAt2=       5
 IPart= 22         3987 of         4368 points in       5 batches and       31 microbatches, Max-NSigAt=       5 Max-NSgAt2=       5
 IPart= 23         3536 of         3540 points in       3 batches and       10 microbatches, Max-NSigAt=       5 Max-NSgAt2=       5
 IPart= 29         3861 of         4138 points in       5 batches and       28 microbatches, Max-NSigAt=       5 Max-NSgAt2=       5
 IPart= 25         3460 of         3540 points in       3 batches and       13 microbatches, Max-NSigAt=       5 Max-NSgAt2=       5
 IPart= 12         3429 of         3540 points in       3 batches and       13 microbatches, Max-NSigAt=       5 Max-NSgAt2=       5
 IPart=  8         3528 of         3564 points in       3 batches and       14 microbatches, Max-NSigAt=       5 Max-NSgAt2=       5
 IPart= 18         3701 of         3940 points in       4 batches and       26 microbatches, Max-NSigAt=       5 Max-NSgAt2=       5
 Forces at end of L703
 I=    0 X=   9.388545272293D-02 Y=   3.158677490681D-01 Z=   5.741051871566D-02
 I=    1 X=   5.309327615891D-04 Y=   1.803092130540D-03 Z=   3.232616330212D-04
 I=    2 X=   1.190066366526D-03 Y=   3.979686627481D-03 Z=  -9.441993955419D-04
 I=    3 X=  -3.035677187140D-04 Y=   3.985760013470D-03 Z=   1.489539449163D-03
 I=    4 X=   2.428599249503D-03 Y=   3.173140537228D-03 Z=   1.483311557847D-03
 I=    5 X=  -3.846030658901D-03 Y=  -1.294167930872D-02 Z=  -2.351913244490D-03
 FrcOut:
 IF    =    36 IFX   =    51 IFXYZ =    66
 IFFX  =    81 IFFFX =   201 IFLen =    15
 IFFLen=   120 IFFFLn=     0 IEDerv=   201
 LEDerv=   773 IFroze=  1163 ICStrt= 39591
 FCEst1:  Generated internal coordinate force constants:
                1             2             3             4             5 
      1  0.659917D+00
      2 -0.120865D+00  0.289275D+00
      3 -0.219455D-01 -0.739026D-01  0.682432D+00
      4 -0.100036D+00  0.106894D-01 -0.175147D-02  0.691122D-01
      5  0.106895D-01 -0.672766D-01 -0.587883D-02 -0.584587D-02  0.511998D-01
      6  0.000000D+00  0.000000D+00 -0.361033D+00  0.000000D+00  0.000000D+00
      7 -0.307527D+00  0.487018D-02  0.106244D+00  0.177362D-01  0.570680D-03
      8 -0.362486D-03 -0.672715D-01  0.121907D-01  0.125213D-02  0.436292D-02
      9  0.104495D+00  0.951131D-02 -0.153542D+00  0.346383D-01  0.111452D-02
     10 -0.237872D+00  0.106393D+00 -0.823474D-01  0.129146D-01 -0.614819D-02
     11  0.111627D+00 -0.136899D+00  0.682569D-01 -0.682954D-02  0.918933D-02
     12 -0.823500D-01  0.650578D-01 -0.153577D+00 -0.284025D-01  0.198544D-01
     13 -0.144820D-01 -0.108823D-02 -0.199416D-03  0.273156D-03  0.733860D-03
     14 -0.108994D-02 -0.178275D-01 -0.666194D-03  0.733846D-03  0.252455D-02
     15 -0.199829D-03 -0.666537D-03 -0.142805D-01 -0.448428D-02 -0.150901D-01
                6             7             8             9            10 
      6  0.361033D+00
      7  0.000000D+00  0.300394D+00
      8  0.000000D+00 -0.266344D-02  0.511976D-01
      9  0.000000D+00 -0.118425D+00 -0.520161D-02  0.129753D+00
     10  0.000000D+00 -0.884097D-02  0.148711D-01 -0.172661D-01  0.228444D+00
     11  0.000000D+00 -0.311179D-02  0.918761D-02 -0.607722D-02 -0.112936D+00
     12  0.000000D+00  0.111386D-01 -0.145196D-01  0.217534D-01  0.963727D-01
     13  0.000000D+00 -0.176274D-02 -0.130973D-01 -0.344257D-02  0.535482D-02
     14  0.000000D+00  0.334364D-03  0.252338D-02  0.653002D-03 -0.218030D-02
     15  0.000000D+00  0.104242D-02  0.753057D-02  0.203581D-02  0.324091D-02
               11            12            13            14            15 
     11  0.123115D+00
     12 -0.690591D-01  0.129786D+00
     13  0.112496D-01  0.324120D-02  0.106168D-01
     14 -0.459334D-02 -0.133343D-02  0.220203D-02  0.173729D-01
     15  0.687943D-02  0.203717D-02  0.400782D-03  0.134662D-02  0.102076D-01
 Quadrupole    = 4.29139946D-01-9.41507918D-01 5.12367972D-01
                -4.46849204D-01-8.11198887D-02-2.73302931D-01
 -------------------------------------------------------------------
 Center     Atomic                   Forces (Hartrees/Bohr)
 Number     Number              X              Y              Z
 -------------------------------------------------------------------
      1        6          -0.000530933   -0.001803092   -0.000323262
      2        1          -0.001190066   -0.003979687    0.000944199
      3        1           0.000303568   -0.003985760   -0.001489539
      4        1          -0.002428599   -0.003173141   -0.001483312
      5        1           0.003846031    0.012941679    0.002351913
 -------------------------------------------------------------------
 Cartesian Forces:  Max     0.012941679 RMS     0.004049346
 From PutF, contents of force:
   1    0.9441993955D-03
   2    0.9490883841D-03
   3    0.9439449655D-03
   4    0.2421516444D-02
   5    0.2412525123D-02
   6   -0.7231779022D-02
   7   -0.1012192208D-05
   8    0.1207885636D-05
   9   -0.1370439750D-01
 -----------------------------------------------------------------------------------------------
                       Internal Coordinate Forces (Hartree/Bohr or radian)
  Cent   Atom   N1       Length/X         N2         Alpha/Y        N3         Beta/Z          J
 -----------------------------------------------------------------------------------------------
      1  C 
      2  H        1   0.000944(     1)
      3  H        1   0.000949(     2)      2   0.002422(     5)
      4  H        1   0.000944(     3)      2   0.002413(     6)      3  -0.007232(     8)     0
      5  H        1  -0.013704(     4)      2   0.000001(     7)      3  -0.000001(     9)     0
 -----------------------------------------------------------------------------------------------
 Internal  Forces:  Max     0.013704398 RMS     0.005317440
 Force constants in Cartesian coordinates: 
                1             2             3             4             5 
      1  0.659917D+00
      2 -0.120865D+00  0.289275D+00
      3 -0.219455D-01 -0.739026D-01  0.682432D+00
      4 -0.100036D+00  0.106894D-01 -0.175147D-02  0.691122D-01
      5  0.106895D-01 -0.672766D-01 -0.587883D-02 -0.584587D-02  0.511998D-01
      6  0.000000D+00  0.000000D+00 -0.361033D+00  0.000000D+00  0.000000D+00
      7 -0.307527D+00  0.487018D-02  0.106244D+00  0.177362D-01  0.570680D-03
      8 -0.362486D-03 -0.672715D-01  0.121907D-01  0.125213D-02  0.436292D-02
      9  0.104495D+00  0.951131D-02 -0.153542D+00  0.346383D-01  0.111452D-02
     10 -0.237872D+00  0.106393D+00 -0.823474D-01  0.129146D-01 -0.614819D-02
     11  0.111627D+00 -0.136899D+00  0.682569D-01 -0.682954D-02  0.918933D-02
     12 -0.823500D-01  0.650578D-01 -0.153577D+00 -0.284025D-01  0.198544D-01
     13 -0.144820D-01 -0.108823D-02 -0.199416D-03  0.273156D-03  0.733860D-03
     14 -0.108994D-02 -0.178275D-01 -0.666194D-03  0.733846D-03  0.252455D-02
     15 -0.199829D-03 -0.666537D-03 -0.142805D-01 -0.448428D-02 -0.150901D-01
                6             7             8             9            10 
      6  0.361033D+00
      7  0.000000D+00  0.300394D+00
      8  0.000000D+00 -0.266344D-02  0.511976D-01
      9  0.000000D+00 -0.118425D+00 -0.520161D-02  0.129753D+00
     10  0.000000D+00 -0.884097D-02  0.148711D-01 -0.172661D-01  0.228444D+00
     11  0.000000D+00 -0.311179D-02  0.918761D-02 -0.607722D-02 -0.112936D+00
     12  0.000000D+00  0.111386D-01 -0.145196D-01  0.217534D-01  0.963727D-01
     13  0.000000D+00 -0.176274D-02 -0.130973D-01 -0.344257D-02  0.535482D-02
     14  0.000000D+00  0.334364D-03  0.252338D-02  0.653002D-03 -0.218030D-02
     15  0.000000D+00  0.104242D-02  0.753057D-02  0.203581D-02  0.324091D-02
               11            12            13            14            15 
     11  0.123115D+00
     12 -0.690591D-01  0.129786D+00
     13  0.112496D-01  0.324120D-02  0.106168D-01
     14 -0.459334D-02 -0.133343D-02  0.220203D-02  0.173729D-01
     15  0.687943D-02  0.203717D-02  0.400782D-03  0.134662D-02  0.102076D-01
 FCInt: Cartesian first derivatives: 
                 1             2             3             4             5 
      1   0.000000D+00  0.000000D+00  0.000000D+00  0.000000D+00  0.000000D+00
      2   0.000000D+00  0.000000D+00  0.000000D+00  0.000000D+00  0.000000D+00
      3   0.000000D+00  0.000000D+00  0.000000D+00  0.000000D+00  0.000000D+00
 FCInt: Cartesian force constants: 
                1             2             3             4             5 
      1  0.659917D+00
      2 -0.120865D+00  0.289275D+00
      3 -0.219455D-01 -0.739026D-01  0.682432D+00
      4 -0.100036D+00  0.106894D-01 -0.175147D-02  0.691122D-01
      5  0.106895D-01 -0.672766D-01 -0.587883D-02 -0.584587D-02  0.511998D-01
      6  0.000000D+00  0.000000D+00 -0.361033D+00  0.000000D+00  0.000000D+00
      7 -0.307527D+00  0.487018D-02  0.106244D+00  0.177362D-01  0.570680D-03
      8 -0.362486D-03 -0.672715D-01  0.121907D-01  0.125213D-02  0.436292D-02
      9  0.104495D+00  0.951131D-02 -0.153542D+00  0.346383D-01  0.111452D-02
     10 -0.237872D+00  0.106393D+00 -0.823474D-01  0.129146D-01 -0.614819D-02
     11  0.111627D+00 -0.136899D+00  0.682569D-01 -0.682954D-02  0.918933D-02
     12 -0.823500D-01  0.650578D-01 -0.153577D+00 -0.284025D-01  0.198544D-01
     13 -0.144820D-01 -0.108823D-02 -0.199416D-03  0.273156D-03  0.733860D-03
     14 -0.108994D-02 -0.178275D-01 -0.666194D-03  0.733846D-03  0.252455D-02
     15 -0.199829D-03 -0.666537D-03 -0.142805D-01 -0.448428D-02 -0.150901D-01
                6             7             8             9            10 
      6  0.361033D+00
      7  0.000000D+00  0.300394D+00
      8  0.000000D+00 -0.266344D-02  0.511976D-01
      9  0.000000D+00 -0.118425D+00 -0.520161D-02  0.129753D+00
     10  0.000000D+00 -0.884097D-02  0.148711D-01 -0.172661D-01  0.228444D+00
     11  0.000000D+00 -0.311179D-02  0.918761D-02 -0.607722D-02 -0.112936D+00
     12  0.000000D+00  0.111386D-01 -0.145196D-01  0.217534D-01  0.963727D-01
     13  0.000000D+00 -0.176274D-02 -0.130973D-01 -0.344257D-02  0.535482D-02
     14  0.000000D+00  0.334364D-03  0.252338D-02  0.653002D-03 -0.218030D-02
     15  0.000000D+00  0.104242D-02  0.753057D-02  0.203581D-02  0.324091D-02
               11            12            13            14            15 
     11  0.123115D+00
     12 -0.690591D-01  0.129786D+00
     13  0.112496D-01  0.324120D-02  0.106168D-01
     14 -0.459334D-02 -0.133343D-02  0.220203D-02  0.173729D-01
     15  0.687943D-02  0.203717D-02  0.400782D-03  0.134662D-02  0.102076D-01
 Internal force constants: 
                1             2             3             4             5 
      1  0.361033D+00
      2  0.000000D+00  0.361033D+00
      3  0.000000D+00  0.000000D+00  0.361033D+00
      4  0.000000D+00  0.000000D+00  0.000000D+00  0.182720D-01
      5  0.000000D+00  0.000000D+00  0.000000D+00  0.000000D+00  0.287402D+00
      6  0.000000D+00  0.000000D+00  0.000000D+00  0.000000D+00  0.114183D+00
      7  0.000000D+00  0.000000D+00  0.000000D+00  0.000000D+00  0.232608D-01
      8  0.000000D+00  0.000000D+00  0.000000D+00  0.000000D+00  0.603850D-01
      9  0.000000D+00  0.000000D+00  0.000000D+00  0.000000D+00 -0.386566D-01
                6             7             8             9 
      6  0.287407D+00
      7  0.232780D-01  0.240505D+00
      8  0.216161D-01 -0.681841D-01  0.168647D+00
      9  0.386681D-01  0.142195D-04 -0.116593D+00  0.233412D+00
 Frcnst in PutFF: 
                1             2             3             4             5 
      1  0.361033D+00
      2  0.000000D+00  0.361033D+00
      3  0.000000D+00  0.000000D+00  0.361033D+00
      4  0.000000D+00  0.000000D+00  0.000000D+00  0.287402D+00
      5  0.000000D+00  0.000000D+00  0.000000D+00  0.114183D+00  0.287407D+00
      6  0.000000D+00  0.000000D+00  0.000000D+00  0.603850D-01  0.216161D-01
      7  0.000000D+00  0.000000D+00  0.000000D+00 -0.386566D-01  0.386681D-01
      8  0.000000D+00  0.000000D+00  0.000000D+00  0.232608D-01  0.232780D-01
      9  0.000000D+00  0.000000D+00  0.000000D+00  0.000000D+00  0.000000D+00
                6             7             8             9 
      6  0.168647D+00
      7 -0.116593D+00  0.233412D+00
      8 -0.681841D-01  0.142195D-04  0.240505D+00
      9  0.000000D+00  0.000000D+00  0.000000D+00  0.182720D-01
 Force constants in internal coordinates: 
                1             2             3             4             5 
      1  0.361033D+00
      2  0.000000D+00  0.361033D+00
      3  0.000000D+00  0.000000D+00  0.361033D+00
      4  0.000000D+00  0.000000D+00  0.000000D+00  0.182720D-01
      5  0.000000D+00  0.000000D+00  0.000000D+00  0.000000D+00  0.287402D+00
      6  0.000000D+00  0.000000D+00  0.000000D+00  0.000000D+00  0.114183D+00
      7  0.000000D+00  0.000000D+00  0.000000D+00  0.000000D+00  0.232608D-01
      8  0.000000D+00  0.000000D+00  0.000000D+00  0.000000D+00  0.603850D-01
      9  0.000000D+00  0.000000D+00  0.000000D+00  0.000000D+00 -0.386566D-01
                6             7             8             9 
      6  0.287407D+00
      7  0.232780D-01  0.240505D+00
      8  0.216161D-01 -0.681841D-01  0.168647D+00
      9  0.386681D-01  0.142195D-04 -0.116593D+00  0.233412D+00
 Final forces over variables, Energy=-4.03474513D+01:
  9.44199396D-04 9.49088384D-04 9.43944965D-04 2.42151644D-03
  2.41252512D-03-7.23177902D-03-1.01219221D-06 1.20788564D-06
 -1.37043975D-02

 GradGradGradGradGradGradGradGradGradGradGradGradGradGradGradGradGradGrad
 Berny optimization.
 Search for a local minimum.
 Step number   1 out of a maximum of   50
 All quantities printed in internal units (Hartrees-Bohrs-Radians)
 Second derivative matrix not updated -- first step.
 The second derivative matrix:
                          R1        R2        R3        A2        A3
           R1           0.36103
           R2           0.00000   0.36103
           R3           0.00000   0.00000   0.36103
           A2           0.00000   0.00000   0.00000   0.28740
           A3           0.00000  -0.00000  -0.00000   0.11418   0.28741
           D3           0.00000  -0.00000   0.00000   0.06038   0.02162
           DH1          0.00000   0.00000  -0.00000  -0.03866   0.03867
           ANG1         0.00000  -0.00000  -0.00000   0.02326   0.02328
           BB           0.00000   0.00000  -0.00000  -0.00000   0.00000
                          D3        DH1      ANG1       BB
           D3           0.16865
           DH1         -0.11659   0.23341
           ANG1        -0.06818   0.00001   0.24051
           BB          -0.00000  -0.00000  -0.00000   0.01827
 ITU=  0
     Eigenvalues ---    0.05338   0.14842   0.24331   0.34987   0.36103
     Eigenvalues ---    0.36103   0.36103   0.422401000.00000
 RFO step:  Lambda=-7.92100539D-04 EMin= 5.33798305D-02
 Linear search not attempted -- first point.
 Variable       Old X    -DE/DX   Delta X   Delta X   Delta X     New X
                                 (Linear)    (Quad)   (Total)
    R1        2.03920   0.00094   0.00000   0.00261   0.00261   2.04181
    R2        2.03920   0.00095   0.00000   0.00262   0.00262   2.04183
    R3        2.03920   0.00094   0.00000   0.00261   0.00261   2.04181
    A2        2.04403   0.00242   0.00000   0.01775   0.01775   2.06178
    A3        2.04417   0.00241   0.00000   0.01753   0.01753   2.06170
    D3        3.71950  -0.00723   0.00000  -0.09671  -0.09671   3.62279
   DH1        1.85965  -0.00000   0.00000  -0.04811  -0.04811   1.81154
   ANG1       1.74329   0.00000   0.00000  -0.03072  -0.03072   1.71256
    BB        4.91329  -0.01370   0.00000   0.00000   0.00000   4.91329
         Item               Value     Threshold  Converged?
 Maximum Force            0.007232     0.000450     NO 
 RMS     Force            0.002887     0.000300     NO 
 Maximum Displacement     0.096713     0.001800     NO 
 RMS     Displacement     0.038377     0.001200     NO 
 Predicted change in Energy=-4.012989D-04
 GradGradGradGradGradGradGradGradGradGradGradGradGradGradGradGradGradGrad

 ---------------------------------------------------------------------------------------------------
                            Z-MATRIX (ANGSTROMS AND DEGREES)
   CD    Cent   Atom    N1       Length/X        N2       Alpha/Y        N3        Beta/Z          J
 ---------------------------------------------------------------------------------------------------
      1      1  C 
      2      2  H        1   1.080481(     1)
      3      3  H        1   1.080488(     2)      2  118.131(     5)
      4      4  H        1   1.080481(     3)      2  118.127(     6)      3  207.571(     8)      0
      5      5  H        1   2.600000(     4)      2   98.123(     7)      3  103.793(     9)      0
 ---------------------------------------------------------------------------------------------------
                         Z-Matrix orientation:                         
 ---------------------------------------------------------------------
 Center     Atomic      Atomic             Coordinates (Angstroms)
 Number     Number       Type             X           Y           Z
 ---------------------------------------------------------------------
      1          6           0        0.000000    0.000000    0.000000
      2          1           0        0.000000    0.000000    1.080481
      3          1           0        0.952851    0.000000   -0.509440
      4          1           0       -0.844676    0.441036   -0.509360
      5          1           0       -0.613677   -2.499689   -0.367360
 ---------------------------------------------------------------------
                    Distance matrix (angstroms):
                    1          2          3          4          5
     1  C    0.000000
     2  H    1.080481   0.000000
     3  H    1.080488   1.853584   0.000000
     4  H    1.080481   1.853533   1.850842   0.000000
     5  H    2.600000   2.953183   2.953412   2.953200   0.000000
 Symmetry turned off by external request.
 Stoichiometry    CH4
 Framework group  C1[X(CH4)]
 Deg. of freedom     9
 Full point group                 C1      NOp   1
 Rotational constants (GHZ):    146.0976747     60.7497197     60.7003574
 Standard basis: Aug-CC-pVTZ (5D, 7F)
   138 basis functions,   180 primitive gaussians,   155 cartesian basis functions
     5 alpha electrons        5 beta electrons
       nuclear repulsion energy        11.4313024018 Hartrees.
 NAtoms=    5 NActive=    5 NUniq=    5 SFac= 1.00D+00 NAtFMM=   60 NAOKFM=F Big=F
 Integral buffers will be    131072 words long.
 Raffenetti 2 integral format.
 Two-electron integral symmetry is turned off.
 Nuclear repulsion after empirical dispersion term =       11.4306738267 Hartrees.
 One-electron integrals computed using PRISM.
 NBasis=   138 RedAO= T EigKep=  1.06D-04  NBF=   138
 NBsUse=   138 1.00D-06 EigRej= -1.00D+00 NBFU=   138
 ExpMin= 2.53D-02 ExpMax= 8.24D+03 ExpMxC= 2.81D+02 IAcc=3 IRadAn=         5 AccDes= 0.00D+00
 Harris functional with IExCor= 4639 and IRadAn=       5 diagonalized for initial guess.
 HarFok:  IExCor= 4639 AccDes= 0.00D+00 IRadAn=         5 IDoV= 1 UseB2=F ITyADJ=14
 ICtDFT=  3500011 ScaDFX=  1.000000  1.000000  1.000000  1.000000
 FoFCou: FMM=F IPFlag=           0 FMFlag=      100000 FMFlg1=           0
         NFxFlg=           0 DoJE=T BraDBF=F KetDBF=T FulRan=T
         wScrn=  0.000000 ICntrl=     500 IOpCl=  0 I1Cent=   200000004 NGrid=           0
         NMat0=    1 NMatS0=      1 NMatT0=    0 NMatD0=    1 NMtDS0=    0 NMtDT0=    0
 Symmetry not used in FoFCou.
 Mixing orbitals, IMix= 1 IMixAn=  0 NRI=1 NE=    5 Coef=  7.07106781D-01  7.07106781D-01
 Mixing orbitals, IMix= 1 IMixAn=  0 NRI=1 NE=    5 Coef= -7.07106781D-01  7.07106781D-01
 Initial guess <Sx>= 0.0000 <Sy>= 0.0000 <Sz>= 0.0000 <S**2>= 1.0000 S= 0.6180
 Keep R1 and R2 ints in memory in canonical form, NReq=186089491.
 Requested convergence on RMS density matrix=1.00D-08 within 128 cycles.
 Requested convergence on MAX density matrix=1.00D-06.
 Requested convergence on             energy=1.00D-06.
 No special actions if energy rises.
 SCF Done:  E(UwB97XD) =  -40.3480955534     A.U. after   14 cycles
            NFock= 14  Conv=0.68D-08     -V/T= 2.0087
 <Sx>= 0.0000 <Sy>= 0.0000 <Sz>= 0.0000 <S**2>= 0.8048 S= 0.5270
 <L.S>=  0.00000000000    
 Annihilation of the first spin contaminant:
 S**2 before annihilation     0.8048,   after     0.0163
 DipInt: DoE/N= T T RetVal/Mat= T F Init=T NMatP=  1 IDeriv=0 Min/MaxMlt=  1  1
 Entering OneElI...
 Multipole integrals L=1 to 1 MinM= 0 MaxM= 0.
 Requested accuracy = 0.1000D-12
 PrsmSu:  NPrtUS=   1 ThrOK=F IAlg=1 NPAlg=1 LenDen=           0.
 Prism:   IPart=     0 DynPar=F LinDyn=F Incr=          12.
 PRISM was handed   419323500 working-precision words and  1275 shell-pairs
 IPart=  0 NShTot=        1275 NBatch=          39 AvBLen=        32.7
 PrSmSu:  NxtVal=             13.
 Entering OneElI...
 Calculate overlap and kinetic energy integrals
    NBasis = 155  MinDer = 1  MaxDer = 1
 Requested accuracy = 0.1000D-12
 PrsmSu:  NPrtUS=  32 ThrOK=T IAlg=1 NPAlg=1 LenDen=           0.
 Prism:   IPart=     0 DynPar=F LinDyn=F Incr=           1.
 PRISM was handed    13082634 working-precision words and  1275 shell-pairs
 PRISM was handed    13082634 working-precision words and  1275 shell-pairs
 PRISM was handed    13082634 working-precision words and  1275 shell-pairs
 PRISM was handed    13082634 working-precision words and  1275 shell-pairs
 PRISM was handed    13082634 working-precision words and  1275 shell-pairs
 PRISM was handed    13082634 working-precision words and  1275 shell-pairs
 PRISM was handed    13082634 working-precision words and  1275 shell-pairs
 PRISM was handed    13082634 working-precision words and  1275 shell-pairs
 PRISM was handed    13082634 working-precision words and  1275 shell-pairs
 PRISM was handed    13082634 working-precision words and  1275 shell-pairs
 PRISM was handed    13082634 working-precision words and  1275 shell-pairs
 PRISM was handed    13082634 working-precision words and  1275 shell-pairs
[...]
          Atomic-Atomic Spin Densities.
               1          2          3          4          5
     1  C    0.860781   0.017054   0.016957   0.016988  -0.002683
     2  H    0.017054  -0.027726   0.000389   0.000390   0.006198
     3  H    0.016957   0.000389  -0.027677   0.000398   0.006176
     4  H    0.016988   0.000390   0.000398  -0.027727   0.006113
     5  H   -0.002683   0.006198   0.006176   0.006113  -0.913611
 Mulliken charges and spin densities:
               1          2
     1  C   -1.072327   0.909096
     2  H    0.367524  -0.003694
     3  H    0.367487  -0.003756
     4  H    0.367203  -0.003838
     5  H   -0.029888  -0.897808
 Sum of Mulliken charges =  -0.00000   0.00000
 Mulliken charges and spin densities with hydrogens summed into heavy atoms:
               1          2
     1  C   -0.000000   0.000000
 APT charges:
               1
     1  C   -0.212128
     2  H    0.047312
     3  H    0.047049
     4  H    0.046620
     5  H    0.071147
 Sum of APT charges =  -0.00000
 APT charges with hydrogens summed into heavy atoms:
               1
     1  C   -0.000000
 Electronic spatial extent (au):  <R**2>=             57.9163
 Charge=             -0.0000 electrons
 Dipole moment (field-independent basis, Debye):
    X=              0.0726    Y=              0.7009    Z=              0.0419  Tot=              0.7059
 Quadrupole moment (field-independent basis, Debye-Ang):
   XX=             -8.6756   YY=            -11.3437   ZZ=             -8.6546
   XY=             -0.2818   XZ=             -0.0172   YZ=             -0.1636
 Traceless Quadrupole moment (field-independent basis, Debye-Ang):
   XX=              0.8824   YY=             -1.7858   ZZ=              0.9034
   XY=             -0.2818   XZ=             -0.0172   YZ=             -0.1636
 Octapole moment (field-independent basis, Debye-Ang**2):
  XXX=              1.2958  YYY=             13.4830  ZZZ=              1.6959  XYY=              0.5247
  XXY=              4.2008  XXZ=             -0.7052  XZZ=              0.4200  YZZ=              4.0792
  YYZ=              0.3029  XYZ=              0.1069
 Hexadecapole moment (field-independent basis, Debye-Ang**3):
 XXXX=            -17.5483 YYYY=            -77.5447 ZZZZ=            -17.0906 XXXY=             -3.1759
 XXXZ=             -0.2147 YYYX=             -3.0600 YYYZ=             -1.7628 ZZZX=             -0.1801
 ZZZY=             -1.7508 XXYY=            -16.0185 XXZZ=             -5.7863 YYZZ=            -15.9743
 XXYZ=             -0.6911 YYXZ=             -0.0377 ZZXY=             -1.0597
 N-N= 1.145750059557D+01 E-N=-1.156863023329D+02  KE= 4.000644817792D+01
  Exact polarizability:  21.136   2.525  45.366   0.149   1.455  20.961
 Approx polarizability:  18.483   1.109  29.174   0.065   0.639  18.408
                          Isotropic Fermi Contact Couplings
        Atom                 a.u.       MegaHertz       Gauss      10(-4) cm-1
     1  C(13)              0.01151       6.46758       2.30779       2.15735
     2  H(1)              -0.01265     -28.27690     -10.08990      -9.43216
     3  H(1)              -0.01265     -28.27897     -10.09064      -9.43285
     4  H(1)              -0.01264     -28.25211     -10.08105      -9.42389
     5  H(1)              -0.26764    -598.16684    -213.44079    -199.52698
 --------------------------------------------------------
       Center         ----  Spin Dipole Couplings  ----
                      3XX-RR        3YY-RR        3ZZ-RR
 --------------------------------------------------------
     1   Atom       -0.482582      0.975957     -0.493375
     2   Atom       -0.063108     -0.005885      0.068993
     3   Atom        0.036132     -0.005878     -0.030254
     4   Atom        0.035162     -0.004880     -0.030282
     5   Atom       -0.011258      0.022758     -0.011500
 --------------------------------------------------------
                        XY            XZ            YZ
 --------------------------------------------------------
     1   Atom        0.154846      0.009468      0.090079
     2   Atom        0.006097     -0.000606     -0.005905
     3   Atom       -0.002110     -0.057099      0.008224
     4   Atom       -0.006578      0.057554     -0.003816
     5   Atom        0.003523      0.000208      0.002028
 --------------------------------------------------------


 ---------------------------------------------------------------------------------
              Anisotropic Spin Dipole Couplings in Principal Axis System
 ---------------------------------------------------------------------------------

       Atom             a.u.   MegaHertz   Gauss  10(-4) cm-1        Axes

              Baa    -0.4989   -66.945   -23.888   -22.330 -0.2535 -0.0324  0.9668
     1 C(13)  Bbb    -0.4988   -66.939   -23.886   -22.329  0.9617 -0.1161  0.2483
              Bcc     0.9977   133.884    47.773    44.659  0.1042  0.9927  0.0606
 
              Baa    -0.0638   -34.014   -12.137   -11.346  0.9945 -0.1048 -0.0001
     2 H(1)   Bbb    -0.0057    -3.049    -1.088    -1.017  0.1045  0.9914  0.0792
              Bcc     0.0695    37.063    13.225    12.363 -0.0082 -0.0788  0.9969
 
              Baa    -0.0637   -34.013   -12.137   -11.345  0.4919 -0.1049  0.8643
     3 H(1)   Bbb    -0.0057    -3.044    -1.086    -1.015  0.1206  0.9914  0.0517
              Bcc     0.0695    37.057    13.223    12.361  0.8623 -0.0788 -0.5003
 
              Baa    -0.0638   -34.022   -12.140   -11.349 -0.5029 -0.0002  0.8644
     4 H(1)   Bbb    -0.0057    -3.019    -1.077    -1.007  0.0879  0.9948  0.0513
              Bcc     0.0694    37.041    13.217    12.356  0.8599 -0.1018  0.5002
 
              Baa    -0.0116    -6.200    -2.212    -2.068 -0.2857 -0.0272  0.9579
     5 H(1)   Bbb    -0.0116    -6.199    -2.212    -2.068  0.9529 -0.1142  0.2809
              Bcc     0.0232    12.399     4.424     4.136  0.1018  0.9931  0.0586
 

 ---------------------------------------------------------------------------------

 Calling FoFJK, ICntrl=    100127 FMM=F ISym2X=0 I1Cent= 0 IOpClX= 1 NMat=1 NMatS=1 NMatT=0.
 Full mass-weighted force constant matrix:
 Low frequencies --- -754.3785   -0.0016   -0.0015   -0.0004   12.1959  214.1345
 Low frequencies ---  225.2852  385.2964  390.5964
 ******    1 imaginary frequencies (negative Signs) ****** 
 Diagonal vibrational polarizability:
        0.1901338       7.9530734       0.1334601
 Harmonic frequencies (cm**-1), IR intensities (KM/Mole), Raman scattering
 activities (A**4/AMU), depolarization ratios for plane and unpolarized
 incident light, reduced masses (AMU), force constants (mDyne/A),
 and normal coordinates:
                      1                      2                      3
                      A                      A                      A
 Frequencies --   -754.3766               371.6032               380.2741
 Red. masses --      1.0958                 1.0251                 1.0250
 Frc consts  --      0.3674                 0.0834                 0.0873
 IR Inten    --   110.5                 0.2949                 0.3004    
  Atom  AN      X      Y      Z        X      Y      Z        X      Y      Z
     1   6    -0.01  -0.09  -0.01     0.04  -0.00   0.01    -0.01  -0.00   0.04
     2   1     0.00   0.02  -0.01     0.01   0.22   0.01     0.07   0.68   0.04
     3   1    -0.00   0.02   0.00     0.05   0.48   0.02    -0.06  -0.54  -0.04
     4   1     0.01   0.02   0.00    -0.08  -0.71  -0.04    -0.01  -0.16  -0.02
     5   1     0.10   0.99   0.06    -0.43   0.05  -0.14     0.14   0.01  -0.43
                      4                      5                      6
                      A                      A                      A
 Frequencies --    670.5563              1413.1690              1413.6585
 Red. masses --      1.1848                 1.1003                 1.1003
 Frc consts  --      0.3139                 1.2946                 1.2955
 IR Inten    --   47.45                  3.349                  3.344    
  Atom  AN      X      Y      Z        X      Y      Z        X      Y      Z
     1   6     0.01   0.13   0.01    -0.09   0.01  -0.03    -0.03  -0.00   0.09
     2   1    -0.06  -0.57   0.00     0.76  -0.06  -0.02     0.25  -0.08   0.07
     3   1    -0.03  -0.56  -0.05     0.26  -0.03   0.55    -0.31   0.10  -0.43
     4   1    -0.09  -0.55  -0.05     0.01  -0.04  -0.18     0.41   0.01  -0.68
     5   1     0.02   0.17   0.01    -0.00   0.00  -0.00    -0.00  -0.00   0.00
                      7                      8                      9
                      A                      A                      A
 Frequencies --   3125.7992              3307.1235              3307.2435
 Red. masses --      1.0085                 1.1185                 1.1185
 Frc consts  --      5.8055                 7.2075                 7.2082
 IR Inten    --  0.2651                  1.530                  1.536    
  Atom  AN      X      Y      Z        X      Y      Z        X      Y      Z
     1   6    -0.00  -0.01  -0.00     0.10  -0.01   0.00    -0.00  -0.01   0.10
     2   1    -0.00  -0.00   0.58     0.01  -0.00  -0.02    -0.00   0.00  -0.81
     3   1     0.50  -0.00  -0.29    -0.60   0.00   0.35     0.37  -0.00  -0.20
     4   1    -0.49   0.10  -0.29    -0.60   0.13  -0.36    -0.34   0.07  -0.18
     5   1     0.00   0.00   0.00    -0.00   0.00  -0.00     0.00   0.00  -0.00

 -------------------
 - Thermochemistry -
 -------------------
 Temperature   298.150 Kelvin.  Pressure   1.00000 Atm.
 Atom     1 has atomic number  6 and mass  12.00000
 Atom     2 has atomic number  1 and mass   1.00783
 Atom     3 has atomic number  1 and mass   1.00783
 Atom     4 has atomic number  1 and mass   1.00783
 Atom     5 has atomic number  1 and mass   1.00783
 Molecular mass:    16.03130 amu.
 Principal axes and moments of inertia in atomic units:
                           1         2         3
     Eigenvalues --    12.50892  29.32096  29.32356
           X            0.10145  -0.09032   0.99073
           Y            0.99313  -0.04914  -0.10618
           Z            0.05828   0.99470   0.08471
 This molecule is an asymmetric top.
 Rotational symmetry number  1.
 Rotational temperatures (Kelvin)      6.92416     2.95399     2.95373
 Rotational constants (GHZ):         144.27629    61.55123    61.54578
    1 imaginary frequencies ignored.
 Zero-point vibrational energy      83675.4 (Joules/Mol)
                                   19.99889 (Kcal/Mol)
 Warning -- explicit consideration of   2 degrees of freedom as
           vibrations may cause significant error
 Vibrational temperatures:    534.65   547.13   964.78  2033.23  2033.94
          (Kelvin)           4497.32  4758.21  4758.38
 
 Zero-point correction=                           0.031870 (Hartree/Particle)
 Thermal correction to Energy=                    0.035509
 Thermal correction to Enthalpy=                  0.036453
 Thermal correction to Gibbs Free Energy=         0.010902
 Sum of electronic and zero-point Energies=            -40.316872
 Sum of electronic and thermal Energies=               -40.313234
 Sum of electronic and thermal Enthalpies=             -40.312289
 Sum of electronic and thermal Free Energies=          -40.337840
 
                     E (Thermal)             CV                S
                      KCal/Mol        Cal/Mol-Kelvin    Cal/Mol-Kelvin
 Total                   22.282             10.093             53.776
 Electronic               0.000              0.000              0.000
 Translational            0.889              2.981             34.261
 Rotational               0.889              2.981             17.027
 Vibrational             20.505              4.132              2.488
 Vibration     1          0.743              1.530              1.073
 Vibration     2          0.750              1.512              1.038
                       Q            Log10(Q)             Ln(Q)
 Total Bot       0.966564D-05         -5.014769        -11.546933
 Total V=0       0.441064D+10          9.644502         22.207286
 Vib (Bot)       0.326339D-14        -14.486331        -33.356011
 Vib (Bot)    1  0.489392D+00         -0.310343         -0.714592
 Vib (Bot)    2  0.475370D+00         -0.322968         -0.743661
 Vib (V=0)       0.148915D+01          0.172939          0.398208
 Vib (V=0)    1  0.119965D+01          0.079053          0.182026
 Vib (V=0)    2  0.118991D+01          0.075514          0.173878
 Electronic      0.100000D+01          0.000000          0.000000
 Translational   0.252295D+07          6.401908         14.740939
 Rotational      0.117396D+04          3.069654          7.068139
 -------------------------------------------------------------------
 Center     Atomic                   Forces (Hartrees/Bohr)
 Number     Number              X              Y              Z
 -------------------------------------------------------------------
      1        6          -0.001301407   -0.012715839   -0.000822265
      2        1           0.000008106    0.000015475    0.000017426
      3        1          -0.000002297    0.000005545    0.000029761
      4        1          -0.000004545   -0.000016002    0.000029714
      5        1           0.001300142    0.012710820    0.000745363
 -------------------------------------------------------------------
 Cartesian Forces:  Max     0.012715839 RMS     0.004675296
 -----------------------------------------------------------------------------------------------
                       Internal Coordinate Forces (Hartree/Bohr or radian)
  Cent   Atom   N1       Length/X         N2         Alpha/Y        N3         Beta/Z          J
 -----------------------------------------------------------------------------------------------
      1  C 
      2  H        1   0.000017(     1)
      3  H        1  -0.000017(     2)      2  -0.000050(     5)
      4  H        1  -0.000014(     3)      2  -0.000054(     6)      3  -0.000029(     8)     0
      5  H        1  -0.012799(     4)      2   0.000042(     7)      3   0.000038(     9)     0
 -----------------------------------------------------------------------------------------------
 Internal  Forces:  Max     0.012798858 RMS     0.004266420

 GradGradGradGradGradGradGradGradGradGradGradGradGradGradGradGradGradGrad
 Berny optimization.
 Search for a local minimum.
 Step number   1 out of a maximum of    2
 All quantities printed in internal units (Hartrees-Bohrs-Radians)
 Second derivative matrix not updated -- analytic derivatives used.
 The second derivative matrix:
                          R1        R2        R3        A2        A3
           R1           0.37249
           R2          -0.00007   0.37248
           R3          -0.00006  -0.00006   0.37249
           A2           0.01556   0.00044  -0.01531   0.18763
           A3           0.01555  -0.01534   0.00038   0.09160   0.18788
           D3           0.00031  -0.00251  -0.00309   0.01666   0.01409
           DH1         -0.00000  -0.00058   0.00057  -0.00226   0.00225
           ANG1        -0.00066   0.00033   0.00034  -0.00070  -0.00072
           BB          -0.00037  -0.00037  -0.00037  -0.00041  -0.00040
                          D3        DH1      ANG1       BB
           D3           0.02361
           DH1         -0.01133   0.02256
           ANG1        -0.00668   0.00003   0.02308
           BB           0.00334  -0.00019   0.00017  -0.01931
 ITU=  0
     Eigenvalues ---    0.00915   0.02288   0.03512   0.09547   0.27397
     Eigenvalues ---    0.37238   0.37344   0.379791000.00000
 Angle between quadratic step and forces=  54.40 degrees.
 Linear search not attempted -- first point.
 Variable       Old X    -DE/DX   Delta X   Delta X   Delta X     New X
                                 (Linear)    (Quad)   (Total)
    R1        2.03769   0.00002   0.00000   0.00007   0.00007   2.03776
    R2        2.03782  -0.00002   0.00000  -0.00005  -0.00005   2.03776
    R3        2.03782  -0.00001   0.00000  -0.00004  -0.00004   2.03777
    A2        2.08831  -0.00005   0.00000  -0.00016  -0.00016   2.08815
    A3        2.08822  -0.00005   0.00000  -0.00027  -0.00027   2.08794
    D3        3.35071  -0.00003   0.00000   0.00051   0.00051   3.35122
   DH1        1.67334   0.00004   0.00000   0.00195   0.00195   1.67529
   ANG1       1.62974   0.00004   0.00000   0.00196   0.00196   1.63170
    BB        4.91329  -0.01280   0.00000   0.00000   0.00000   4.91329
         Item               Value     Threshold  Converged?
 Maximum Force            0.000054     0.000450     YES
 RMS     Force            0.000036     0.000300     YES
 Maximum Displacement     0.001960     0.001800     NO 
 RMS     Displacement     0.000944     0.001200     YES
 Predicted change in Energy=-8.364711D-08
 GradGradGradGradGradGradGradGradGradGradGradGradGradGradGradGradGradGrad


 Test job not archived.
 1\1\GINC-NODE-6-11\Freq\UwB97XD\Aug-CC-pVTZ\C1H4\CAVALLOTTI\03-Jun-202
 3\1\\#N Geom=AllCheck Guess=TCheck SCRF=Check Test GenChk UwB97XD/Aug-
 CC-pVTZ Freq\\geom 0\\0,1\C\H,1,R1\H,1,R2,2,A2\H,1,R3,2,A3,3,D3,0\H,1,
 BB,2,ANG1,3,DH1,0\\R1=1.07829827\R2=1.07836578\R3=1.07836657\A2=119.65
 126721\A3=119.64600897\D3=191.98160338\DH1=95.8750951\ANG1=93.37697205
 \BB=2.6\\Version=EM64L-G09RevD.01\HF=-40.3487427\S2=0.809542\S2-1=0.\S
 2A=0.017437\RMSD=9.943e-10\RMSF=4.675e-03\ZeroPoint=0.0318703\Thermal=
 0.035509\Dipole=0.0285591,0.2757646,0.0164982\DipoleDeriv=0.0010093,-0
 .0671208,-0.0039237,-0.0675221,-0.6430334,-0.0393399,-0.0040603,-0.039
 3012,0.0056415,0.0512556,0.0078572,-0.0022674,0.0078607,0.1243871,-0.0
 215486,-0.0010171,-0.0096043,-0.0337068,-0.0143645,-0.0045861,0.035930
 7,-0.014861,0.123777,0.0173412,0.0346024,0.011638,0.0317343,-0.0046027
 ,0.0314596,-0.0316864,0.0419026,0.1127886,0.0244268,-0.0314763,0.01837
 14,0.0316746,-0.0332976,0.03239,0.0019467,0.0326199,0.2820807,0.019120
 5,0.0019512,0.0188961,-0.0353435\Polar=21.1363773,2.5252879,45.3663448
 ,0.1489513,1.4547354,20.9609538\PG=C01 [X(C1H4)]\NImag=1\\0.61630504,-
 0.06306275,0.02267269,-0.00386430,-0.03646205,0.62098723,-0.05437205,0
 .00446443,-0.00024988,0.04518287,0.00445948,-0.01225118,-0.00239220,-0
 .00395010,0.00795985,0.00019060,0.00182413,-0.35944604,-0.00017451,-0.
 00172738,0.37248925,-0.28475765,0.00384975,0.13137945,0.00483746,0.000
 41927,-0.00383815,0.29219694,0.00018457,-0.01211423,0.00504873,0.00055
 444,0.00290158,0.00016228,-0.00350552,0.00777573,0.13098089,0.00297416
 ,-0.12900258,0.02386550,0.00039456,-0.00659892,-0.14081745,-0.00257493
 ,0.12547075,-0.27386529,0.05178816,-0.12743683,0.00454746,-0.00075270,
 0.00378392,-0.01229034,0.00427730,-0.01373903,0.28141237,0.05546265,-0
 .02290063,0.03216327,-0.00089204,0.00321766,-0.00062231,-0.00098634,0.
 00324929,-0.00046689,-0.05466694,0.01839390,-0.12747577,0.03003016,-0.
 12899232,-0.02327114,0.00534015,-0.00660140,0.01335627,-0.00329718,0.0
 1017884,0.13717513,-0.03169745,0.12546338,-0.00331005,0.00296040,0.000
 17157,-0.00019574,-0.00017594,0.00003814,0.00001358,-0.00151078,-0.000
 28991,0.00019579,0.00108267,0.00021552,0.00329641,0.00295605,0.0245933
 6,0.00164225,-0.00017672,-0.00182791,0.00036329,0.00022284,-0.00181237
 ,-0.00032690,-0.00064582,-0.00196022,-0.00037568,-0.00235635,-0.018992
 86,0.00016859,0.00163360,-0.00354629,-0.00016997,-0.00161513,0.0001571
 1,-0.00008011,0.00066110,-0.00004809,0.00021681,0.00062338,-0.00004849
 ,-0.00013532,-0.00130296,0.00348577\\0.00130141,0.01271584,0.00082226,
 -0.00000811,-0.00001548,-0.00001743,0.00000230,-0.00000555,-0.00002976
 ,0.00000454,0.00001600,-0.00002971,-0.00130014,-0.01271082,-0.00074536
 \\\@


 YOU CAN WIPE THE SLATE CLEAN, BUT YOU'LL STILL
 HAVE TO EAT A LITTLE CHALK DUST.
 Job cpu time:       0 days  0 hours  7 minutes 41.1 seconds.
 File lengths (MBytes):  RWF=     66 Int=      0 D2E=      0 Chk=      3 Scr=      1
 Normal termination of Gaussian 09 at Sat Jun  3 08:53:01 2023.
