
 Working directory              : /scratch/cc//molpro.Jko0fRkIb8/
 Global scratch directory       : /scratch/cc//molpro.Jko0fRkIb8/
 Wavefunction directory         : /home/chimica2/cavallotti/wfu/
 Main file repository           : /scratch/cc//molpro.Jko0fRkIb8/

 id        : polimi

 Nodes     nprocs
 node-6-11    1
 Distribution of processes:   nprocs(total)=    2   nprocs(compute)=    1   nprocs(helper)=    1
 GA implementation: MPI file
 GA implementation (serial work in mppx): MPI file

 Using customized tuning parameters: mindgm=1; mindgv=20; mindgc=4; mindgr=1; noblas=0; minvec=7
 default implementation of scratch files=df  


 Variables initialized (1009), CPU time= 0.01 sec
  memory,         400 ,m
 
 symmetry, nosym; orient, noorient
 angstrom
 geomtyp=xyz
 geometry={
 5
 rotational dynamics
 C, -0.118833, -0.00538559, 0.0771094
 H, -0.387072, -0.414982, 1.03773
 H, 0.910808, -0.0119433, -0.242755
 H, -0.88025, 0.407816, -0.564787
 H, 1.77144, 0.0832354, -1.14832
 }
 
  basis=cc-pvdz
  {multi;closed, 4;occ, 6;wf, 10,1,0,;state,1;maxiter,40}
  if (iterations.ge.0) then
     {rs2,shift=0.2;orbital,IGNORE_ERROR;state,1}
     molpro_energy = energy +   40.192865169999997
  else
     molpro_energy = 10.0
  endif
 Commands initialized (810), CPU time= 0.01 sec, 661 directives.
 Default parameters read. Elapsed time= 0.18 sec

 Checking input...
 Passed
1


                                         ***  PROGRAM SYSTEM MOLPRO  ***
                                       Copyright, TTI GmbH Stuttgart, 2015
                                    Version 2021.2 linked Jun  2 2021 16:00:59


 **********************************************************************************************************************************
 LABEL *                                                                                 
  64 bit serial version                                                                  DATE: 03-Jun-23          TIME: 09:12:00  
 **********************************************************************************************************************************

 SHA1:             1987c3f1b0c3ae76932bc24993909f2d7ae6b1f1
 **********************************************************************************************************************************

 Memory per process:       400 MW
 Total memory per node:    400 MW

 GA preallocation disabled
 GA check disabled

 Variable memory set to 400.0 MW

 SETTING GEOMTYP        =    XYZ
 ZSYMEL=NOSYM
 ZUNIT=ANG

 SETTING BASIS          =    CC-PVDZ


 Recomputing integrals since basis changed


 Using spherical harmonics

 Library entry C      S cc-pVDZ              selected for orbital group  1
 Library entry C      P cc-pVDZ              selected for orbital group  1
 Library entry C      D cc-pVDZ              selected for orbital group  1
 Library entry H      S cc-pVDZ              selected for orbital group  2
 Library entry H      P cc-pVDZ              selected for orbital group  2


 PROGRAM * SEWARD (Integral evaluation for generally contracted gaussian basis sets)     Author: Roland Lindh, 1990

 Geometry written to block  1 of record 700


 Point group  C1  



 ATOMIC COORDINATES

 NR  ATOM    CHARGE       X              Y              Z

   1  C       6.00   -0.224561825   -0.010177290    0.145715648
   2  H       1.00   -0.731460071   -0.784202327    1.961025491
   3  H       1.00    1.721177672   -0.022569566   -0.458740465
   4  H       1.00   -1.663431421    0.770660549   -1.067292749
   5  H       1.00    3.347536446    0.157292110   -2.170010303

 Bond lengths in Bohr (Angstrom)

 1-2  2.037501023  1-3  2.037504098  1-4  2.037508974
     ( 1.078199108)     ( 1.078200736)     ( 1.078203316)

 Bond angles

  2-1-3  119.97238247   2-1-4  120.02072505   3-1-4  120.00661357

 NUCLEAR CHARGE:                   10
 NUMBER OF PRIMITIVE AOS:          55
 NUMBER OF SYMMETRY AOS:           54
 NUMBER OF CONTRACTIONS:           34   (   34A   )
 NUMBER OF INNER CORE ORBITALS:     0   (    0A   )
 NUMBER OF OUTER CORE ORBITALS:     1   (    1A   )
 NUMBER OF VALENCE ORBITALS:        8   (    8A   )


 NUCLEAR REPULSION ENERGY   11.87866516

 Eigenvalues of metric

         1 0.105E-01 0.248E-01 0.350E-01 0.416E-01 0.435E-01 0.532E-01 0.711E-01 0.120E+00


 Contracted 2-electron integrals neglected if value below      1.0D-11
 AO integral compression algorithm  1   Integral accuracy      1.0D-11

     1.311 MB (compressed) written to integral file ( 61.3%)


 NUMBER OF SORTED TWO-ELECTRON INTEGRALS:     177310.     BUFFER LENGTH:  32768
 NUMBER OF SEGMENTS:   1  SEGMENT LENGTH:     177310      RECORD LENGTH: 524288

 Memory used in sort:       0.73 MW

 SORT1 READ      219389. AND WROTE      172163. INTEGRALS IN      1 RECORDS. CPU TIME:     0.00 SEC, REAL TIME:     0.01 SEC
 SORT2 READ      172163. AND WROTE      177310. INTEGRALS IN      5 RECORDS. CPU TIME:     0.02 SEC, REAL TIME:     0.03 SEC

 FILE SIZES:   FILE 1:    31.4 MBYTE,  FILE 4:     4.2 MBYTE,   TOTAL:     35.6 MBYTE

 OPERATOR DM      FOR CENTER  0  COORDINATES:    0.000000    0.000000    0.000000


 **********************************************************************************************************************************
 DATASETS  * FILE   NREC   LENGTH (MB)   RECORD NAMES
              1      19       29.48       500      610      700      900      950      970     1000      129      960     1100   
                                          VAR    BASINP    GEOM    SYMINP    ZMAT    AOBASIS   BASIS     P2S    ABASIS      S 
                                         1400     1410     1200     1210     1080     1600     1650     1300     1700   
                                           T        V       H0       H01     AOSYM     SMH    MOLCAS    ERIS     OPER   

 PROGRAMS   *        TOTAL       INT
 CPU TIMES  *         0.42      0.26
 REAL TIME  *         0.90 SEC
 DISK USED  *        34.26 MB
 **********************************************************************************************************************************

 PROGRAM * MULTI (Direct Multiconfiguration SCF)       Authors: P.J. Knowles, H.-J. Werner (1984)
                                                                D.A. Kreplin, P.J. Knowles, H.-J. Werner (2019)

 Number of closed-shell orbitals:   4 (   4 )
 Number of active  orbitals:        2 (   2 )
 Number of external orbitals:      28 (  28 )

 State symmetry 1

 Number of active electrons:   2    Spin symmetry=Singlet   Space symmetry=1
 Number of states:             1
 Number of CSFs:               3   (4 determinants, 4 intermediate states)

 Orbital guess generated from atomic densities. Full valence occupancy:    9

 Wavefunction dump at record             2140.2

 Convergence thresholds  0.10E-04 (gradient)  0.10E-05 (energy)
 
 Number of orbital rotations:  176  ( 8 closed/active, 112 closed/virtual, 0 active/active, 56 active/virtual )
 Total number of variables:    180
 
  Second-order MCSCF: L-BFGS accelerated
 
 ITER  MIC  NCI  NEG     ENERGY(VAR)    ENERGY(PROJ) ENERGY CHANGE       GRAD(0)  GRAD(ORB)   GRAD(CI)      STEP      TIME
   1    7    6    0    -39.99710186     -40.02946727   -0.03236541    0.16954653 0.00076409 0.00000000  0.17E+00      0.11
   2    8    7    0    -40.02941477     -40.02943896   -0.00002419    0.00698151 0.00000069 0.00000000  0.41E-02      0.21
   3    7    7    0    -40.02943898     -40.02943898   -0.00000000    0.00001069 0.00000000 0.00000000  0.61E-05      0.30

 CONVERGENCE REACHED!  Final gradient:    0.00000000 ( 0.35E-09)
                       Final energy:    -40.02943898
 
 First order charge density matrix for state 1.1 saved on record 2140.2 (density set 1)
 
 Results for state 1.1
 =====================
 !MCSCF STATE 1.1 Energy                       -40.029438977587
 Nuclear energy                                 11.87866516
 Kinetic energy                                 40.09130308
 One electron energy                           -76.36778508
 Two electron energy                            24.45968094
 Virial ratio                                    1.99845692
 
 !MCSCF STATE 1.1 Dipole moment                 -0.07536978    -0.00636455     0.06339095
 Dipole moment /Debye                           -0.19157087    -0.01617708     0.16112373
 
 No non-zero expectation values
 
 
 Natural orbital dump at molpro section 2140.2 (Orbital set 2)


 **********************************************************************************************************************************
 DATASETS  * FILE   NREC   LENGTH (MB)   RECORD NAMES
              1      20       29.78       500      610      700      900      950      970     1000      129      960     1100   
                                          VAR    BASINP    GEOM    SYMINP    ZMAT    AOBASIS   BASIS     P2S    ABASIS      S 
                                         1400     1410     1200     1210     1080     1600     1650     1300     1700     1380   
                                           T        V       H0       H01     AOSYM     SMH    MOLCAS    ERIS     OPER     JKOP   

              2       4        2.72       700     1000      520     2140   
                                         GEOM     BASIS   MCVARS    MCSCF   

 PROGRAMS   *        TOTAL     MULTI       INT
 CPU TIMES  *         0.67      0.25      0.26
 REAL TIME  *         1.30 SEC
 DISK USED  *        34.26 MB
 **********************************************************************************************************************************


 PROGRAM * RS2 (Multireference RS Perturbation Theory)     Authors: H.-J. Werner (1993), P. Celani (1998)


 Level shift= 0.20

 Convergence thresholds:  THRVAR = 1.00D-08  THRDEN = 1.00D-06

 Number of optimized states: 1  Roots:    1
 Number of reference states: 1  Roots:    1

 Reference symmetry:                   1   Singlet 
 Number of electrons:                 10
 Maximum number of shells:             4
 Maximum number of spin couplings:     5

 Reference space:        3 conf        3 CSFs
 N elec internal:       15 conf       15 CSFs
 N-1 el internal:       23 conf       32 CSFs
 N-2 el internal:       25 conf       52 CSFs

 Number of electrons in valence space:                      8
 Maximum number of open shell orbitals in reference space:  2
 Maximum number of open shell orbitals in internal spaces:  6


 Number of core orbitals:           1 (   1 )
 Number of closed-shell orbitals:   3 (   3 )
 Number of active  orbitals:        2 (   2 )
 Number of external orbitals:      28 (  28 )

 Molecular orbitals read from record     2140.2  Type=MCSCF/NATURAL (state 1.1)

 Integral transformation finished. Total CPU:   0.01 sec, npass=  1  Memory used:   0.11 MW


 Number of p-space configurations:   3

 Reference wavefunction optimized for reference space (refopt=1)

 State     Reference Energy 
     1       -40.02943898

 Number of blocks in overlap matrix:     2   Smallest eigenvalue:  0.10D+01
 Number of N-2 electron functions:      22
 Number of N-1 electron functions:      32

 Number of internal configurations:                   15
 Number of singly external configurations:           896
 Number of doubly external configurations:          8680
 Total number of contracted configurations:         9591
 Total number of uncontracted configurations:      21351

 Weight factors for SA-density in H0:    1.000000

 FIMAX=  0.31D-01  FXMAX=  0.87D-13  DIAG=  F  T  NOREF=1  NOINT=0  IHPPD=2

 Nuclear energy:                      11.87866516
 Core energy:                        -35.77277002
 Zeroth-order valence energy:         -4.43114492
 Zeroth-order total energy:          -28.32524978
 First-order energy:                 -11.70418920

 Using uncontracted singles

 Diagonal Coupling coefficients finished.               Storage:     883 words, CPU-Time:      0.00 seconds.
 Energy denominators for pairs finished in 0 passes.    Storage:    2295 words, CPU-time:      0.00 seconds.

 A level shift of 0.20 is applied.

  ITER. STATE  ROOT     SQ.NORM     CORR.ENERGY   TOTAL ENERGY   ENERGY CHANGE       DEN1      VAR(S)    VAR(P)      TIME
    1     1     1     1.00725708    -0.00145142   -40.03089039    -0.00145142    -0.13092048  0.73D-02  0.36D-01     0.02
    2     1     1     1.04363759    -0.13967234   -40.16911132    -0.13822092    -0.00005529  0.29D-04  0.99D-05     0.02
    3     1     1     1.04367791    -0.13974818   -40.16918716    -0.00007584    -0.00004275  0.16D-06  0.64D-07     0.02
    4     1     1     1.04370011    -0.13975302   -40.16919200    -0.00000484    -0.00000050  0.19D-08  0.41D-09     0.03
    5     1     1     1.04370078    -0.13975315   -40.16919213    -0.00000013    -0.00000025  0.19D-10  0.51D-11     0.03
    6     1     1     1.04370092    -0.13975318   -40.16919215    -0.00000003    -0.00000000  0.31D-12  0.58D-13     0.03

 Energies without level shift correction:

    6     1     1     1.04370092    -0.13101299   -40.16045197

 Energy contributions for state 1.1:
 ===================================

            Energy contr.      SQ.Norm of FOWF
 Space I     -0.00001101          0.00002225
 Space S     -0.01544401          0.00737368
 Space P     -0.11555797          0.03630499


 =====================================
 Analysis of CPU times by interactions
 =====================================

       I      S      P

 I   0.0%
 S   0.0%   0.0%
 P   0.0%   0.0%   0.0%

 Initialization:  66.7%
 Other:           33.3%

 Total CPU:        0.0 seconds
 =====================================



 gnormi=  1.00002225  gnorms=  0.00737368  gnormp=  0.03630499  gnorm=  1.04370092
 ecorri= -0.00001101  ecorrs= -0.01544401  ecorrp= -0.11555797  ecorr= -0.13975318

 Reference coefficients greater than 0.0500000
 =============================================
 22220           0.7403730
 22202          -0.6721963


 RESULTS FOR STATE 1.1
 =====================

 Coefficient of reference function:   C(0) = 1.00000000 (fixed)   1.00000000 (relaxed)

 Energy contributions of configuration classes

 CLASS          SQ.NORM        ECORR1        ECORR2
 +++++++++++++++++++++++++++++++++++++++++++++++++++
 Internals    0.00002225   -0.00001101    0.13972969
 Singles      0.00737368   -0.01544401   -0.03294863
 Pairs        0.03630499   -0.11555797   -0.24653424
 Total        1.04370092   -0.13101299   -0.13975318
 +++++++++++++++++++++++++++++++++++++++++++++++++++


 Reference energy                     -40.02943898
 Nuclear energy                        11.87866516
 Kinetic energy                        40.18361938
 One electron energy                  -76.29667191
 Two electron energy                   24.24881459
 Virial quotient                       -0.99964097
 Correlation energy                    -0.13975318
 !RSPT2 STATE 1.1 Energy              -40.169192152617

 Properties without orbital relaxation:

 !RSPT2 STATE 1.1 Dipole moment        -0.08364912    -0.00657514     0.06845818
 Dipole moment /Debye                  -0.21261484    -0.01671234     0.17400334


 **********************************************************************************************************************************
 DATASETS  * FILE   NREC   LENGTH (MB)   RECORD NAMES
              1      20       29.78       500      610      700      900      950      970     1000      129      960     1100   
                                          VAR    BASINP    GEOM    SYMINP    ZMAT    AOBASIS   BASIS     P2S    ABASIS      S 
                                         1400     1410     1200     1210     1080     1600     1650     1300     1700     1380   
                                           T        V       H0       H01     AOSYM     SMH    MOLCAS    ERIS     OPER     JKOP   

              2       4        2.72       700     1000      520     2140   
                                         GEOM     BASIS   MCVARS    MCSCF   

 PROGRAMS   *        TOTAL       RS2     MULTI       INT
 CPU TIMES  *         0.73      0.06      0.25      0.26
 REAL TIME  *         1.46 SEC
 DISK USED  *        34.26 MB
 **********************************************************************************************************************************
 SETTING MOLPRO_ENERGY  =         0.02367302  AU                              

 RS2/cc-pVDZ energy=    -40.169192152617

             RS2           MULTI
    -40.16919215    -40.02943898
 **********************************************************************************************************************************
 Molpro calculation terminated
