
 Working directory              : /scratch/cc//molpro.WXVdAz135l/
 Global scratch directory       : /scratch/cc//molpro.WXVdAz135l/
 Wavefunction directory         : /home/chimica2/cavallotti/wfu/
 Main file repository           : /scratch/cc//molpro.WXVdAz135l/

 id        : polimi

 Nodes     nprocs
 node-6-11    1
 Distribution of processes:   nprocs(total)=    2   nprocs(compute)=    1   nprocs(helper)=    1
 GA implementation: MPI file
 GA implementation (serial work in mppx): MPI file

 Using customized tuning parameters: mindgm=1; mindgv=20; mindgc=4; mindgr=1; noblas=0; minvec=7
 default implementation of scratch files=df  


 Variables initialized (1009), CPU time= 0.01 sec
  memory,         400 ,m
 
 symmetry, nosym; orient, noorient
 angstrom
 geomtyp=xyz
 geometry={
 5
 rotational dynamics
 C, -0.0372227, 0.109689, -0.0802194
 H, -0.0917526, -0.611957, 0.719011
 H, 0.816635, 0.120916, -0.73849
 H, -0.837598, 0.817852, -0.223139
 H, 0.55592, -1.63286, 1.19778
 }
 
  basis=cc-pvdz
  {multi;closed, 4;occ, 6;wf, 10,1,0,;state,1;maxiter,40}
  if (iterations.ge.0) then
     {rs2,shift=0.2;orbital,IGNORE_ERROR;state,1}
     molpro_energy = energy +   40.192865169999997
  else
     molpro_energy = 10.0
  endif
 Commands initialized (810), CPU time= 0.01 sec, 661 directives.
 Default parameters read. Elapsed time= 0.16 sec

 Checking input...
 Passed
1


                                         ***  PROGRAM SYSTEM MOLPRO  ***
                                       Copyright, TTI GmbH Stuttgart, 2015
                                    Version 2021.2 linked Jun  2 2021 16:00:59


 **********************************************************************************************************************************
 LABEL *                                                                                 
  64 bit serial version                                                                  DATE: 03-Jun-23          TIME: 09:12:00  
 **********************************************************************************************************************************

 SHA1:             1987c3f1b0c3ae76932bc24993909f2d7ae6b1f1
 **********************************************************************************************************************************

 Memory per process:       400 MW
 Total memory per node:    400 MW

 GA preallocation disabled
 GA check disabled

 Variable memory set to 400.0 MW

 SETTING GEOMTYP        =    XYZ
 ZSYMEL=NOSYM
 ZUNIT=ANG

 SETTING BASIS          =    CC-PVDZ


 Recomputing integrals since basis changed


 Using spherical harmonics

 Library entry C      S cc-pVDZ              selected for orbital group  1
 Library entry C      P cc-pVDZ              selected for orbital group  1
 Library entry C      D cc-pVDZ              selected for orbital group  1
 Library entry H      S cc-pVDZ              selected for orbital group  2
 Library entry H      P cc-pVDZ              selected for orbital group  2


 PROGRAM * SEWARD (Integral evaluation for generally contracted gaussian basis sets)     Author: Roland Lindh, 1990

 Geometry written to block  1 of record 700


 Point group  C1  



 ATOMIC COORDINATES

 NR  ATOM    CHARGE       X              Y              Z

   1  C       6.00   -0.070340709    0.207282169   -0.151592696
   2  H       1.00   -0.173387285   -1.156431130    1.358733871
   3  H       1.00    1.543216494    0.228498124   -1.395543846
   4  H       1.00   -1.582830823    1.545516290   -0.421671598
   5  H       1.00    1.050536547   -3.085658200    2.263476158

 Bond lengths in Bohr (Angstrom)

 1-2  2.037503103  1-3  2.037506178  1-4  2.037508165
     ( 1.078200209)     ( 1.078201836)     ( 1.078202888)

 Bond angles

  2-1-3  119.97233662   2-1-4  120.02077509   3-1-4  120.00660917

 NUCLEAR CHARGE:                   10
 NUMBER OF PRIMITIVE AOS:          55
 NUMBER OF SYMMETRY AOS:           54
 NUMBER OF CONTRACTIONS:           34   (   34A   )
 NUMBER OF INNER CORE ORBITALS:     0   (    0A   )
 NUMBER OF OUTER CORE ORBITALS:     1   (    1A   )
 NUMBER OF VALENCE ORBITALS:        8   (    8A   )


 NUCLEAR REPULSION ENERGY   11.87741537

 Eigenvalues of metric

         1 0.118E-01 0.265E-01 0.350E-01 0.419E-01 0.440E-01 0.527E-01 0.728E-01 0.118E+00


 Contracted 2-electron integrals neglected if value below      1.0D-11
 AO integral compression algorithm  1   Integral accuracy      1.0D-11

     1.311 MB (compressed) written to integral file ( 61.0%)


 NUMBER OF SORTED TWO-ELECTRON INTEGRALS:     177310.     BUFFER LENGTH:  32768
 NUMBER OF SEGMENTS:   1  SEGMENT LENGTH:     177310      RECORD LENGTH: 524288

 Memory used in sort:       0.73 MW

 SORT1 READ      219389. AND WROTE      172173. INTEGRALS IN      1 RECORDS. CPU TIME:     0.01 SEC, REAL TIME:     0.02 SEC
 SORT2 READ      172173. AND WROTE      177310. INTEGRALS IN      5 RECORDS. CPU TIME:     0.02 SEC, REAL TIME:     0.02 SEC

 FILE SIZES:   FILE 1:    31.4 MBYTE,  FILE 4:     4.2 MBYTE,   TOTAL:     35.6 MBYTE

 OPERATOR DM      FOR CENTER  0  COORDINATES:    0.000000    0.000000    0.000000


 **********************************************************************************************************************************
 DATASETS  * FILE   NREC   LENGTH (MB)   RECORD NAMES
              1      19       29.48       500      610      700      900      950      970     1000      129      960     1100   
                                          VAR    BASINP    GEOM    SYMINP    ZMAT    AOBASIS   BASIS     P2S    ABASIS      S 
                                         1400     1410     1200     1210     1080     1600     1650     1300     1700   
                                           T        V       H0       H01     AOSYM     SMH    MOLCAS    ERIS     OPER   

 PROGRAMS   *        TOTAL       INT
 CPU TIMES  *         0.39      0.23
 REAL TIME  *         0.84 SEC
 DISK USED  *        34.26 MB
 **********************************************************************************************************************************

 PROGRAM * MULTI (Direct Multiconfiguration SCF)       Authors: P.J. Knowles, H.-J. Werner (1984)
                                                                D.A. Kreplin, P.J. Knowles, H.-J. Werner (2019)

 Number of closed-shell orbitals:   4 (   4 )
 Number of active  orbitals:        2 (   2 )
 Number of external orbitals:      28 (  28 )

 State symmetry 1

 Number of active electrons:   2    Spin symmetry=Singlet   Space symmetry=1
 Number of states:             1
 Number of CSFs:               3   (4 determinants, 4 intermediate states)

 Orbital guess generated from atomic densities. Full valence occupancy:    9

 Wavefunction dump at record             2140.2

 Convergence thresholds  0.10E-04 (gradient)  0.10E-05 (energy)
 
 Number of orbital rotations:  176  ( 8 closed/active, 112 closed/virtual, 0 active/active, 56 active/virtual )
 Total number of variables:    180
 
  Second-order MCSCF: L-BFGS accelerated
 
 ITER  MIC  NCI  NEG     ENERGY(VAR)    ENERGY(PROJ) ENERGY CHANGE       GRAD(0)  GRAD(ORB)   GRAD(CI)      STEP      TIME
   1    7    6    0    -39.99887187     -40.03117991   -0.03230804    0.17019539 0.00062078 0.00000000  0.17E+00      0.09
   2    7    6    0    -40.03112396     -40.03114621   -0.00002224    0.00672769 0.00000753 0.00000000  0.39E-02      0.18
   3    7    7    0    -40.03114623     -40.03114623   -0.00000000    0.00001026 0.00000000 0.00000000  0.74E-05      0.26

 CONVERGENCE REACHED!  Final gradient:    0.00000000 ( 0.92E-09)
                       Final energy:    -40.03114623
 
 First order charge density matrix for state 1.1 saved on record 2140.2 (density set 1)
 
 Results for state 1.1
 =====================
 !MCSCF STATE 1.1 Energy                       -40.031146226127
 Nuclear energy                                 11.87741537
 Kinetic energy                                 40.08862102
 One electron energy                           -76.37053149
 Two electron energy                            24.46196989
 Virial ratio                                    1.99856631
 
 !MCSCF STATE 1.1 Dipole moment                 -0.03940302     0.07896860    -0.04732946
 Dipole moment /Debye                           -0.10015249     0.20071816    -0.12029949
 
 No non-zero expectation values
 
 
 Natural orbital dump at molpro section 2140.2 (Orbital set 2)


 **********************************************************************************************************************************
 DATASETS  * FILE   NREC   LENGTH (MB)   RECORD NAMES
              1      20       29.78       500      610      700      900      950      970     1000      129      960     1100   
                                          VAR    BASINP    GEOM    SYMINP    ZMAT    AOBASIS   BASIS     P2S    ABASIS      S 
                                         1400     1410     1200     1210     1080     1600     1650     1300     1700     1380   
                                           T        V       H0       H01     AOSYM     SMH    MOLCAS    ERIS     OPER     JKOP   

              2       4        2.72       700     1000      520     2140   
                                         GEOM     BASIS   MCVARS    MCSCF   

 PROGRAMS   *        TOTAL     MULTI       INT
 CPU TIMES  *         0.63      0.24      0.23
 REAL TIME  *         1.21 SEC
 DISK USED  *        34.26 MB
 **********************************************************************************************************************************


 PROGRAM * RS2 (Multireference RS Perturbation Theory)     Authors: H.-J. Werner (1993), P. Celani (1998)


 Level shift= 0.20

 Convergence thresholds:  THRVAR = 1.00D-08  THRDEN = 1.00D-06

 Number of optimized states: 1  Roots:    1
 Number of reference states: 1  Roots:    1

 Reference symmetry:                   1   Singlet 
 Number of electrons:                 10
 Maximum number of shells:             4
 Maximum number of spin couplings:     5

 Reference space:        3 conf        3 CSFs
 N elec internal:       15 conf       15 CSFs
 N-1 el internal:       23 conf       32 CSFs
 N-2 el internal:       25 conf       52 CSFs

 Number of electrons in valence space:                      8
 Maximum number of open shell orbitals in reference space:  2
 Maximum number of open shell orbitals in internal spaces:  6


 Number of core orbitals:           1 (   1 )
 Number of closed-shell orbitals:   3 (   3 )
 Number of active  orbitals:        2 (   2 )
 Number of external orbitals:      28 (  28 )

 Molecular orbitals read from record     2140.2  Type=MCSCF/NATURAL (state 1.1)

 Integral transformation finished. Total CPU:   0.00 sec, npass=  1  Memory used:   0.11 MW


 Number of p-space configurations:   3

 Reference wavefunction optimized for reference space (refopt=1)

 State     Reference Energy 
     1       -40.03114623

 Number of blocks in overlap matrix:     2   Smallest eigenvalue:  0.10D+01
 Number of N-2 electron functions:      22
 Number of N-1 electron functions:      32

 Number of internal configurations:                   15
 Number of singly external configurations:           896
 Number of doubly external configurations:          8680
 Total number of contracted configurations:         9591
 Total number of uncontracted configurations:      21351

 Weight factors for SA-density in H0:    1.000000

 FIMAX=  0.28D-01  FXMAX=  0.55D-13  DIAG=  F  T  NOREF=1  NOINT=0  IHPPD=2

 Nuclear energy:                      11.87741537
 Core energy:                        -35.77561593
 Zeroth-order valence energy:         -4.42292012
 Zeroth-order total energy:          -28.32112068
 First-order energy:                 -11.71002555

 Using uncontracted singles

 Diagonal Coupling coefficients finished.               Storage:     883 words, CPU-Time:      0.00 seconds.
 Energy denominators for pairs finished in 0 passes.    Storage:    2295 words, CPU-time:      0.00 seconds.

 A level shift of 0.20 is applied.

  ITER. STATE  ROOT     SQ.NORM     CORR.ENERGY   TOTAL ENERGY   ENERGY CHANGE       DEN1      VAR(S)    VAR(P)      TIME
    1     1     1     1.00699092    -0.00139818   -40.03254441    -0.00139818    -0.13046229  0.70D-02  0.36D-01     0.01
    2     1     1     1.04339383    -0.13913776   -40.17028399    -0.13773958    -0.00003876  0.26D-04  0.93D-05     0.02
    3     1     1     1.04342828    -0.13920793   -40.17035416    -0.00007017    -0.00003902  0.14D-06  0.61D-07     0.02
    4     1     1     1.04344983    -0.13921260   -40.17035882    -0.00000466    -0.00000037  0.15D-08  0.33D-09     0.02
    5     1     1     1.04345043    -0.13921271   -40.17035893    -0.00000011    -0.00000021  0.13D-10  0.41D-11     0.02
    6     1     1     1.04345056    -0.13921273   -40.17035896    -0.00000003    -0.00000000  0.20D-12  0.38D-13     0.02

 Energies without level shift correction:

    6     1     1     1.04345056    -0.13052262   -40.16166885

 Energy contributions for state 1.1:
 ===================================

            Energy contr.      SQ.Norm of FOWF
 Space I     -0.00000145          0.00001432
 Space S     -0.01493284          0.00708492
 Space P     -0.11558833          0.03635132


 =====================================
 Analysis of CPU times by interactions
 =====================================

       I      S      P

 I   0.0%
 S   0.0%   0.0%
 P   0.0%   0.0%   0.0%

 Initialization:  50.0%
 Other:           50.0%

 Total CPU:        0.0 seconds
 =====================================



 gnormi=  1.00001432  gnorms=  0.00708492  gnormp=  0.03635132  gnorm=  1.04345056
 ecorri= -0.00000145  ecorrs= -0.01493284  ecorrp= -0.11558833  ecorr= -0.13921273

 Reference coefficients greater than 0.0500000
 =============================================
 22220           0.7194477
 22202          -0.6945466


 RESULTS FOR STATE 1.1
 =====================

 Coefficient of reference function:   C(0) = 1.00000000 (fixed)   1.00000000 (relaxed)

 Energy contributions of configuration classes

 CLASS          SQ.NORM        ECORR1        ECORR2
 +++++++++++++++++++++++++++++++++++++++++++++++++++
 Internals    0.00001432   -0.00000145    0.13920964
 Singles      0.00708492   -0.01493284   -0.03185412
 Pairs        0.03635132   -0.11558833   -0.24656825
 Total        1.04345056   -0.13052262   -0.13921273
 +++++++++++++++++++++++++++++++++++++++++++++++++++


 Reference energy                     -40.03114623
 Nuclear energy                        11.87741537
 Kinetic energy                        40.18042347
 One electron energy                  -76.29966873
 Two electron energy                   24.25189440
 Virial quotient                       -0.99974952
 Correlation energy                    -0.13921273
 !RSPT2 STATE 1.1 Energy              -40.170358960311

 Properties without orbital relaxation:

 !RSPT2 STATE 1.1 Dipole moment        -0.04153512     0.08594975    -0.05263000
 Dipole moment /Debye                  -0.10557173     0.21846248    -0.13377212


 **********************************************************************************************************************************
 DATASETS  * FILE   NREC   LENGTH (MB)   RECORD NAMES
              1      20       29.78       500      610      700      900      950      970     1000      129      960     1100   
                                          VAR    BASINP    GEOM    SYMINP    ZMAT    AOBASIS   BASIS     P2S    ABASIS      S 
                                         1400     1410     1200     1210     1080     1600     1650     1300     1700     1380   
                                           T        V       H0       H01     AOSYM     SMH    MOLCAS    ERIS     OPER     JKOP   

              2       4        2.72       700     1000      520     2140   
                                         GEOM     BASIS   MCVARS    MCSCF   

 PROGRAMS   *        TOTAL       RS2     MULTI       INT
 CPU TIMES  *         0.70      0.07      0.24      0.23
 REAL TIME  *         1.37 SEC
 DISK USED  *        34.26 MB
 **********************************************************************************************************************************
 SETTING MOLPRO_ENERGY  =         0.02250621  AU                              

 RS2/cc-pVDZ energy=    -40.170358960311

             RS2           MULTI
    -40.17035896    -40.03114623
 **********************************************************************************************************************************
 Molpro calculation terminated
