 Entering Gaussian System, Link 0=g09
 Input=geom.com
 Output=geom.log
 Initial command:
 /software/cinetica/g09d1/g09d01/d01/build-node-6-2-59348/src/main/l1.exe "/scratch/cc/140708/Gau-82989.inp" -scrdir="/scratch/cc/140708/"
 Entering Link 1 = /software/cinetica/g09d1/g09d01/d01/build-node-6-2-59348/src/main/l1.exe PID=     82990.
  
 Copyright (c) 1988,1990,1992,1993,1995,1998,2003,2009,2013,
            Gaussian, Inc.  All Rights Reserved.
  
 This is part of the Gaussian(R) 09 program.  It is based on
 the Gaussian(R) 03 system (copyright 2003, Gaussian, Inc.),
 the Gaussian(R) 98 system (copyright 1998, Gaussian, Inc.),
 the Gaussian(R) 94 system (copyright 1995, Gaussian, Inc.),
 the Gaussian 92(TM) system (copyright 1992, Gaussian, Inc.),
 the Gaussian 90(TM) system (copyright 1990, Gaussian, Inc.),
 the Gaussian 88(TM) system (copyright 1988, Gaussian, Inc.),
 the Gaussian 86(TM) system (copyright 1986, Carnegie Mellon
 University), and the Gaussian 82(TM) system (copyright 1983,
 Carnegie Mellon University). Gaussian is a federally registered
 trademark of Gaussian, Inc.
  
 This software contains proprietary and confidential information,
 including trade secrets, belonging to Gaussian, Inc.
  
 This software is provided under written license and may be
 used, copied, transmitted, or stored only in accord with that
 written license.
  
 The following legend is applicable only to US Government
 contracts under FAR:
  
                    RESTRICTED RIGHTS LEGEND
  
 Use, reproduction and disclosure by the US Government is
 subject to restrictions as set forth in subparagraphs (a)
 and (c) of the Commercial Computer Software - Restricted
 Rights clause in FAR 52.227-19.
  
 Gaussian, Inc.
 340 Quinnipiac St., Bldg. 40, Wallingford CT 06492
  
  
 ---------------------------------------------------------------
 Warning -- This program may not be used in any manner that
 competes with the business of Gaussian, Inc. or will provide
 assistance to any competitor of Gaussian, Inc.  The licensee
 of this program is prohibited from giving any competitor of
 Gaussian, Inc. access to this program.  By using this program,
 the user acknowledges that Gaussian, Inc. is engaged in the
 business of creating and licensing software in the field of
 computational chemistry and represents and warrants to the
 licensee that it is not a competitor of Gaussian, Inc. and that
 it will not use this program in any manner prohibited above.
 ---------------------------------------------------------------
  

 Cite this work as:
 Gaussian 09, Revision D.01,
 M. J. Frisch, G. W. Trucks, H. B. Schlegel, G. E. Scuseria, 
 M. A. Robb, J. R. Cheeseman, G. Scalmani, V. Barone, B. Mennucci, 
 G. A. Petersson, H. Nakatsuji, M. Caricato, X. Li, H. P. Hratchian, 
 A. F. Izmaylov, J. Bloino, G. Zheng, J. L. Sonnenberg, M. Hada, 
 M. Ehara, K. Toyota, R. Fukuda, J. Hasegawa, M. Ishida, T. Nakajima, 
 Y. Honda, O. Kitao, H. Nakai, T. Vreven, J. A. Montgomery, Jr., 
 J. E. Peralta, F. Ogliaro, M. Bearpark, J. J. Heyd, E. Brothers, 
 K. N. Kudin, V. N. Staroverov, T. Keith, R. Kobayashi, J. Normand, 
 K. Raghavachari, A. Rendell, J. C. Burant, S. S. Iyengar, J. Tomasi, 
 M. Cossi, N. Rega, J. M. Millam, M. Klene, J. E. Knox, J. B. Cross, 
 V. Bakken, C. Adamo, J. Jaramillo, R. Gomperts, R. E. Stratmann, 
 O. Yazyev, A. J. Austin, R. Cammi, C. Pomelli, J. W. Ochterski, 
 R. L. Martin, K. Morokuma, V. G. Zakrzewski, G. A. Voth, 
 P. Salvador, J. J. Dannenberg, S. Dapprich, A. D. Daniels, 
 O. Farkas, J. B. Foresman, J. V. Ortiz, J. Cioslowski, 
 and D. J. Fox, Gaussian, Inc., Wallingford CT, 2013.
 
 ******************************************
 Gaussian 09:  EM64L-G09RevD.01 24-Apr-2013
                 3-Jun-2023 
 ******************************************
 %mem=400MW
 %chk=tmp
 %NProcShared= 32
 Will use up to   32 processors via shared memory.
 ----------------------------------------------------------------------
 # uwb97xd/aug-cc-pvtz opt=(noeig,intern,maxcyc=50) # int=ultrafine nos
 ym iop(7/33=1) guess=(mix,always)
 ----------------------------------------------------------------------
 1/6=50,10=7,11=1,14=-1,18=40,26=4,38=1/1,3;
 2/12=2,15=1,17=6,18=5,29=3,40=1/2;
 3/5=16,6=1,7=10,11=2,16=1,25=1,30=1,71=1,74=-58,75=-5,116=2/1,2,3;
 4/13=-1/1;
 5/5=2,38=5/2;
 6/7=2,8=2,9=2,10=2,28=1/1;
 7/29=1,30=1,33=1/1,2,3,16;
 1/6=50,10=7,11=1,14=-1,18=40,26=4/3(2);
 2/15=1,29=3/2;
 99//99;
 2/15=1,29=3/2;
 3/5=16,6=1,7=10,11=2,16=1,25=1,30=1,71=1,74=-58,75=-5,116=2/1,2,3;
 4/13=-1/1;
 5/5=2,38=5/2;
 7/30=1,33=1/1,2,3,16;
 1/6=50,11=1,14=-1,18=40,26=4/3(-5);
 2/15=1,29=3/2;
 6/7=2,8=2,9=2,10=2,19=2,28=1/1;
 99/9=1/99;
 ------
 geom 0
 ------
 Symbolic Z-matrix:
 Charge =  0 Multiplicity = 1
 C1
 H2                   C1   R1
 H3                   C1   R2       H2   A2
 H4                   C1   R3       H2   A3       H3   D3       0
 H21                  1    rts      2    aabs1    3    babs1    0
       Variables:
  BABS1                98.791                    
  AABS1                95.1103                   
       Constants:
  R3                    1.0782                   
  A2                  119.9721                   
  A3                  120.0207                   
  D3                  179.8076                   
  R2                    1.0782                   
  R1                    1.0782                   
  RTS                   2.4                      
 

 GradGradGradGradGradGradGradGradGradGradGradGradGradGradGradGradGradGrad
 Berny optimization.
 Initialization pass.
                       ----------------------------
                       !    Initial Parameters    !
                       ! (Angstroms and Degrees)  !
 ----------------------                            ----------------------
 !      Name          Value   Derivative information (Atomic Units)     !
 ------------------------------------------------------------------------
 !      BABS1       98.791    estimate D2E/DX2                          !
 !      AABS1       95.1103   estimate D2E/DX2                          !
 !       R3          1.0782   Frozen                                    !
 !       A2        119.9721   Frozen                                    !
 !       A3        120.0207   Frozen                                    !
 !       D3        179.8076   Frozen                                    !
 !       R2          1.0782   Frozen                                    !
 !       R1          1.0782   Frozen                                    !
 !       RTS         2.4      Frozen                                    !
 ------------------------------------------------------------------------
 Trust Radius=3.00D-01 FncErr=1.00D-07 GrdErr=1.00D-06
 Number of steps in this run=     50 maximum allowed number of steps=    100.
 GradGradGradGradGradGradGradGradGradGradGradGradGradGradGradGradGradGrad

 ---------------------------------------------------------------------------------------------------
                            Z-MATRIX (ANGSTROMS AND DEGREES)
   CD    Cent   Atom    N1       Length/X        N2       Alpha/Y        N3        Beta/Z          J
 ---------------------------------------------------------------------------------------------------
      1      1  C 
      2      2  H        1   1.078200(     1)
      3      3  H        1   1.078200(     2)      2  119.972(     5)
      4      4  H        1   1.078200(     3)      2  120.021(     6)      3  179.808(     8)      0
      5      5  H        1   2.400000(     4)      2   95.110(     7)      3   98.791(     9)      0
 ---------------------------------------------------------------------------------------------------
                         Z-Matrix orientation:                         
 ---------------------------------------------------------------------
 Center     Atomic      Atomic             Coordinates (Angstroms)
 Number     Number       Type             X           Y           Z
 ---------------------------------------------------------------------
      1          6           0        0.000000    0.000000    0.000000
      2          1           0        0.000000    0.000000    1.078200
      3          1           0        0.934011    0.000000   -0.538645
      4          1           0       -0.933548   -0.003135   -0.539437
      5          1           0       -0.365335   -2.362378   -0.213776
 ---------------------------------------------------------------------
                    Distance matrix (angstroms):
                    1          2          3          4          5
     1  C    0.000000
     2  H    1.078200   0.000000
     3  H    1.078200   1.867235   0.000000
     4  H    1.078200   1.867692   1.867562   0.000000
     5  H    2.400000   2.717260   2.715635   2.448459   0.000000
 Symmetry turned off by external request.
 Stoichiometry    CH4
 Framework group  C1[X(CH4)]
 Deg. of freedom     9
 Full point group                 C1      NOp   1
 Rotational constants (GHZ):    147.1678692     70.2195287     69.4493548
 Standard basis: Aug-CC-pVTZ (5D, 7F)
   138 basis functions,   180 primitive gaussians,   155 cartesian basis functions
     5 alpha electrons        5 beta electrons
       nuclear repulsion energy        11.6131091320 Hartrees.
 NAtoms=    5 NActive=    5 NUniq=    5 SFac= 1.00D+00 NAtFMM=   60 NAOKFM=F Big=F
 Integral buffers will be    131072 words long.
 Raffenetti 2 integral format.
 Two-electron integral symmetry is turned off.
 Nuclear repulsion after empirical dispersion term =       11.6123483318 Hartrees.
 One-electron integrals computed using PRISM.
 NBasis=   138 RedAO= T EigKep=  9.37D-05  NBF=   138
 NBsUse=   138 1.00D-06 EigRej= -1.00D+00 NBFU=   138
 ExpMin= 2.53D-02 ExpMax= 8.24D+03 ExpMxC= 2.81D+02 IAcc=3 IRadAn=         5 AccDes= 0.00D+00
 Harris functional with IExCor= 4639 and IRadAn=       5 diagonalized for initial guess.
 HarFok:  IExCor= 4639 AccDes= 0.00D+00 IRadAn=         5 IDoV= 1 UseB2=F ITyADJ=14
 ICtDFT=  3500011 ScaDFX=  1.000000  1.000000  1.000000  1.000000
 FoFCou: FMM=F IPFlag=           0 FMFlag=      100000 FMFlg1=           0
         NFxFlg=           0 DoJE=T BraDBF=F KetDBF=T FulRan=T
         wScrn=  0.000000 ICntrl=     500 IOpCl=  0 I1Cent=   200000004 NGrid=           0
         NMat0=    1 NMatS0=      1 NMatT0=    0 NMatD0=    1 NMtDS0=    0 NMtDT0=    0
 Symmetry not used in FoFCou.
 Mixing orbitals, IMix= 1 IMixAn=  0 NRI=1 NE=    5 Coef=  7.07106781D-01  7.07106781D-01
 Mixing orbitals, IMix= 1 IMixAn=  0 NRI=1 NE=    5 Coef= -7.07106781D-01  7.07106781D-01
 Initial guess <Sx>= 0.0000 <Sy>= 0.0000 <Sz>= 0.0000 <S**2>= 1.0000 S= 0.6180
 Keep R1 and R2 ints in memory in canonical form, NReq=186089897.
 Requested convergence on RMS density matrix=1.00D-08 within 128 cycles.
 Requested convergence on MAX density matrix=1.00D-06.
 Requested convergence on             energy=1.00D-06.
 No special actions if energy rises.
 SCF Done:  E(UwB97XD) =  -40.3538414296     A.U. after   14 cycles
            NFock= 14  Conv=0.26D-08     -V/T= 2.0093
 <Sx>= 0.0000 <Sy>= 0.0000 <Sz>= 0.0000 <S**2>= 0.6841 S= 0.4665
 <L.S>=  0.00000000000    
 Annihilation of the first spin contaminant:
 S**2 before annihilation     0.6841,   after     0.0118

 **********************************************************************

            Population analysis using the SCF density.

 **********************************************************************

 Alpha  occ. eigenvalues --  -10.31977  -0.79836  -0.52185  -0.52133  -0.32860
 Alpha virt. eigenvalues --   -0.02580   0.03735   0.05024   0.05161   0.09707
 Alpha virt. eigenvalues --    0.11007   0.12617   0.12641   0.13765   0.18895
 Alpha virt. eigenvalues --    0.19522   0.20367   0.20760   0.27237   0.29731
 Alpha virt. eigenvalues --    0.31287   0.31591   0.32348   0.32494   0.33423
 Alpha virt. eigenvalues --    0.33918   0.37427   0.38319   0.38903   0.39249
 Alpha virt. eigenvalues --    0.40092   0.40343   0.44393   0.44558   0.58841
 Alpha virt. eigenvalues --    0.59200   0.66123   0.67629   0.68483   0.72899
 Alpha virt. eigenvalues --    0.73356   0.79618   0.80041   0.80560   0.80948
 Alpha virt. eigenvalues --    0.82320   0.82975   0.86202   0.88085   0.88402
 Alpha virt. eigenvalues --    0.93647   0.93981   0.94744   0.98441   0.99116
 Alpha virt. eigenvalues --    1.03029   1.03433   1.03911   1.06612   1.07302
 Alpha virt. eigenvalues --    1.08099   1.11569   1.12726   1.15827   1.21311
 Alpha virt. eigenvalues --    1.24109   1.31156   1.37206   1.40993   1.46704
 Alpha virt. eigenvalues --    1.49327   1.49418   1.50169   1.56160   1.56693
 Alpha virt. eigenvalues --    1.58116   1.58967   1.67593   1.78712   1.79158
 Alpha virt. eigenvalues --    1.94084   1.95840   1.97233   2.05383   2.05976
 Alpha virt. eigenvalues --    2.08454   2.72184   2.79652   2.84031   2.86990
 Alpha virt. eigenvalues --    2.98563   3.00689   3.07918   3.33493   3.33886
 Alpha virt. eigenvalues --    3.38133   3.38279   3.40589   3.41906   3.43871
 Alpha virt. eigenvalues --    3.44362   3.49856   3.67705   3.69614   3.72155
 Alpha virt. eigenvalues --    3.72664   3.80284   3.80960   3.85880   3.89837
 Alpha virt. eigenvalues --    3.98905   4.02747   4.04543   4.05451   4.06982
 Alpha virt. eigenvalues --    4.13583   4.15485   4.17570   4.42852   4.49008
 Alpha virt. eigenvalues --    4.57852   4.58656   4.59818   4.62779   4.78336
 Alpha virt. eigenvalues --    4.80833   5.03993   5.04009   5.10145   5.10168
 Alpha virt. eigenvalues --    5.17221   5.18555   5.30855   6.06575   6.21480
 Alpha virt. eigenvalues --    6.22069   6.39362  15.97130
  Beta  occ. eigenvalues --  -10.31084  -0.76105  -0.51195  -0.51190  -0.37552
  Beta virt. eigenvalues --   -0.00286   0.04219   0.05161   0.05167   0.06618
  Beta virt. eigenvalues --    0.12886   0.12939   0.13017   0.14432   0.19223
  Beta virt. eigenvalues --    0.19694   0.20848   0.21109   0.27830   0.30051
  Beta virt. eigenvalues --    0.31672   0.32073   0.32539   0.32642   0.33938
  Beta virt. eigenvalues --    0.34076   0.37843   0.38164   0.39081   0.39116
  Beta virt. eigenvalues --    0.40402   0.40684   0.44700   0.44753   0.55509
  Beta virt. eigenvalues --    0.60117   0.66344   0.67920   0.70320   0.73378
  Beta virt. eigenvalues --    0.73806   0.80045   0.80378   0.81524   0.81552
  Beta virt. eigenvalues --    0.83305   0.83680   0.85934   0.88057   0.89040
  Beta virt. eigenvalues --    0.93077   0.93937   0.94367   0.96883   0.97847
  Beta virt. eigenvalues --    1.03123   1.03230   1.03948   1.06851   1.07765
  Beta virt. eigenvalues --    1.08020   1.11538   1.13175   1.15728   1.21491
  Beta virt. eigenvalues --    1.24138   1.30979   1.37510   1.41318   1.46378
  Beta virt. eigenvalues --    1.49775   1.49790   1.50273   1.57194   1.57227
  Beta virt. eigenvalues --    1.58408   1.60029   1.68532   1.79210   1.79659
  Beta virt. eigenvalues --    1.95199   1.95648   1.98306   2.05640   2.06257
  Beta virt. eigenvalues --    2.09954   2.58782   2.81848   2.85036   2.90473
  Beta virt. eigenvalues --    3.00096   3.03118   3.09072   3.35830   3.36079
  Beta virt. eigenvalues --    3.40549   3.40871   3.42218   3.43027   3.45440
  Beta virt. eigenvalues --    3.45922   3.51417   3.68585   3.69290   3.71314
  Beta virt. eigenvalues --    3.71898   3.73344   3.73404   3.79260   3.83056
  Beta virt. eigenvalues --    3.89196   3.90602   3.96902   4.03434   4.04154
  Beta virt. eigenvalues --    4.13700   4.16426   4.17849   4.34752   4.47465
  Beta virt. eigenvalues --    4.58017   4.58681   4.59951   4.62671   4.77926
  Beta virt. eigenvalues --    4.82526   5.04324   5.04351   5.12537   5.12660
  Beta virt. eigenvalues --    5.17714   5.19079   5.31883   6.07572   6.21942
  Beta virt. eigenvalues --    6.22510   6.40087  15.99289
          Condensed to atoms (all electrons):
               1          2          3          4          5
     1  C    5.946116   0.337173   0.337162   0.328228   0.107547
     2  H    0.337173   0.277744   0.009796   0.010321  -0.003445
     3  H    0.337162   0.009796   0.277761   0.010328  -0.003427
     4  H    0.328228   0.010321   0.010328   0.280489  -0.004527
     5  H    0.107547  -0.003445  -0.003427  -0.004527   0.959580
          Atomic-Atomic Spin Densities.
               1          2          3          4          5
     1  C    0.795833   0.014352   0.014260   0.009951   0.000270
     2  H    0.014352  -0.024836   0.000506   0.000301   0.007577
     3  H    0.014260   0.000506  -0.024870   0.000305   0.007573
     4  H    0.009951   0.000301   0.000305  -0.026601   0.010939
     5  H    0.000270   0.007577   0.007573   0.010939  -0.851598
 Mulliken charges and spin densities:
               1          2
     1  C   -1.056226   0.834666
     2  H    0.368412  -0.002099
     3  H    0.368381  -0.002225
     4  H    0.375161  -0.005104
     5  H   -0.055728  -0.825238
 Sum of Mulliken charges =  -0.00000   0.00000
 Mulliken charges and spin densities with hydrogens summed into heavy atoms:
               1          2
     1  C   -0.000000   0.000000
 Electronic spatial extent (au):  <R**2>=             54.6113
 Charge=             -0.0000 electrons
 Dipole moment (field-independent basis, Debye):
    X=              0.1002    Y=              0.8204    Z=              0.0586  Tot=              0.8286
 Quadrupole moment (field-independent basis, Debye-Ang):
   XX=             -8.6369   YY=            -11.7718   ZZ=             -8.6275
   XY=             -0.1298   XZ=             -0.0079   YZ=             -0.0761
 Traceless Quadrupole moment (field-independent basis, Debye-Ang):
   XX=              1.0418   YY=             -2.0931   ZZ=              1.0512
   XY=             -0.1298   XZ=             -0.0079   YZ=             -0.0761
 Octapole moment (field-independent basis, Debye-Ang**2):
  XXX=              1.7718  YYY=             14.0407  ZZZ=              2.0358  XYY=              0.8386
  XXY=              4.0127  XXZ=             -0.6536  XZZ=              0.5895  YZZ=              4.0032
  YYZ=              0.4910  XYZ=              0.0088
 Hexadecapole moment (field-independent basis, Debye-Ang**3):
 XXXX=            -18.0567 YYYY=            -70.3251 ZZZZ=            -17.2524 XXXY=             -4.0963
 XXXZ=             -0.3550 YYYX=             -4.3575 YYYZ=             -2.5500 ZZZX=             -0.3610
 ZZZY=             -2.4081 XXYY=            -14.8887 XXZZ=             -5.8823 YYZZ=            -14.7291
 XXYZ=             -0.7881 YYXZ=             -0.1422 ZZXY=             -1.3655
 N-N= 1.161234833178D+01 E-N=-1.159483852228D+02  KE= 3.998357323125D+01
                          Isotropic Fermi Contact Couplings
        Atom                 a.u.       MegaHertz       Gauss      10(-4) cm-1
     1  C(13)             -0.00299      -1.68184      -0.60012      -0.56100
     2  H(1)              -0.01211     -27.06892      -9.65886      -9.02922
     3  H(1)              -0.01212     -27.08614      -9.66501      -9.03496
     4  H(1)              -0.01346     -30.07579     -10.73179     -10.03220
     5  H(1)              -0.24714    -552.33402    -197.08651    -184.23880
 --------------------------------------------------------
       Center         ----  Spin Dipole Couplings  ----
                      3XX-RR        3YY-RR        3ZZ-RR
 --------------------------------------------------------
     1   Atom       -0.461867      0.922197     -0.460330
     2   Atom       -0.058501     -0.004361      0.062861
     3   Atom        0.031438     -0.004380     -0.027057
     4   Atom        0.034873     -0.009219     -0.025654
     5   Atom       -0.012279      0.025428     -0.013149
 --------------------------------------------------------
                        XY            XZ            YZ
 --------------------------------------------------------
     1   Atom       -0.010470     -0.001387     -0.006110
     2   Atom       -0.002017     -0.001312     -0.007195
     3   Atom       -0.007251     -0.053191      0.001833
     4   Atom        0.005458      0.052530      0.003131
     5   Atom        0.007154      0.000774      0.004190
 --------------------------------------------------------


 ---------------------------------------------------------------------------------
              Anisotropic Spin Dipole Couplings in Principal Axis System
 ---------------------------------------------------------------------------------

       Atom             a.u.   MegaHertz   Gauss  10(-4) cm-1        Axes

              Baa    -0.4628   -62.102   -22.160   -20.715  0.8616  0.0088  0.5075
     1 C(13)  Bbb    -0.4595   -61.662   -22.003   -20.568 -0.5076 -0.0000  0.8616
              Bcc     0.9223   123.764    44.162    41.283 -0.0076  1.0000 -0.0044
 
              Baa    -0.0586   -31.264   -11.156   -10.429  0.9992  0.0389  0.0131
     2 H(1)   Bbb    -0.0050    -2.687    -0.959    -0.896 -0.0400  0.9937  0.1045
              Bcc     0.0636    33.951    12.115    11.325 -0.0089 -0.1050  0.9944
 
              Baa    -0.0586   -31.263   -11.155   -10.428  0.5106  0.0393  0.8589
     3 H(1)   Bbb    -0.0051    -2.697    -0.962    -0.900  0.0703  0.9937 -0.0872
              Bcc     0.0636    33.960    12.118    11.328  0.8569 -0.1049 -0.5046
 
              Baa    -0.0560   -29.887   -10.664    -9.969 -0.5004  0.0004  0.8658
     4 H(1)   Bbb    -0.0097    -5.201    -1.856    -1.735 -0.0722  0.9965 -0.0422
              Bcc     0.0658    35.087    12.520    11.704  0.8628  0.0836  0.4986
 
              Baa    -0.0136    -7.257    -2.590    -2.421 -0.4573 -0.0116  0.8892
     5 H(1)   Bbb    -0.0136    -7.250    -2.587    -2.418  0.8710 -0.2075  0.4453
              Bcc     0.0272    14.507     5.177     4.839  0.1794  0.9782  0.1050
 

 ---------------------------------------------------------------------------------

 DipInt: DoE/N= T T RetVal/Mat= T F Init=T NMatP=  1 IDeriv=0 Min/MaxMlt=  1  1
 Entering OneElI...
 Multipole integrals L=1 to 1 MinM= 0 MaxM= 0.
 Requested accuracy = 0.1000D-12
 PrsmSu:  NPrtUS=   1 ThrOK=F IAlg=1 NPAlg=1 LenDen=           0.
 Prism:   IPart=     0 DynPar=F LinDyn=F Incr=          12.
 PRISM was handed   419323276 working-precision words and  1275 shell-pairs
 IPart=  0 NShTot=        1275 NBatch=          38 AvBLen=        33.6
 PrSmSu:  NxtVal=             13.
 Entering OneElI...
 Calculate overlap and kinetic energy integrals
    NBasis = 155  MinDer = 1  MaxDer = 1
 Requested accuracy = 0.1000D-12
 PrsmSu:  NPrtUS=  32 ThrOK=T IAlg=1 NPAlg=1 LenDen=           0.
 Prism:   IPart=     0 DynPar=F LinDyn=F Incr=           1.
 PRISM was handed    13082618 working-precision words and  1275 shell-pairs
 PRISM was handed    13082618 working-precision words and  1275 shell-pairs
 PRISM was handed    13082618 working-precision words and  1275 shell-pairs
 PRISM was handed    13082618 working-precision words and  1275 shell-pairs
 PRISM was handed    13082618 working-precision words and  1275 shell-pairs
 PRISM was handed    13082618 working-precision words and  1275 shell-pairs
 PRISM was handed    13082618 working-precision words and  1275 shell-pairs
 PRISM was handed    13082618 working-precision words and  1275 shell-pairs
 PRISM was handed    13082618 working-precision words and  1275 shell-pairs
 PRISM was handed    13082618 working-precision words and  1275 shell-pairs
 PRISM was handed    13082618 working-precision words and  1275 shell-pairs
 PRISM was handed    13082618 working-precision words and  1275 shell-pairs
 PRISM was handed    13082618 working-precision words and  1275 shell-pairs
 PRISM was handed    13082618 working-precision words and  1275 shell-pairs
 PRISM was handed    13082618 working-precision words and  1275 shell-pairs
 PRISM was handed    13082618 working-precision words and  1275 shell-pairs
 PRISM was handed    13082618 working-precision words and  1275 shell-pairs
 PRISM was handed    13082618 working-precision words and  1275 shell-pairs
 PRISM was handed    13082618 working-precision words and  1275 shell-pairs
 PRISM was handed    13082618 working-precision words and  1275 shell-pairs
 PRISM was handed    13082618 working-precision words and  1275 shell-pairs
 PRISM was handed    13082618 working-precision words and  1275 shell-pairs
 PRISM was handed    13082618 working-precision words and  1275 shell-pairs
 PRISM was handed    13082618 working-precision words and  1275 shell-pairs
 PRISM was handed    13082618 working-precision words and  1275 shell-pairs
 PRISM was handed    13082618 working-precision words and  1275 shell-pairs
 PRISM was handed    13082618 working-precision words and  1275 shell-pairs
 PRISM was handed    13082618 working-precision words and  1275 shell-pairs
 PRISM was handed    13082618 working-precision words and  1275 shell-pairs
 PRISM was handed    13082618 working-precision words and  1275 shell-pairs
 PRISM was handed    13082618 working-precision words and  1275 shell-pairs
 PRISM was handed    13082618 working-precision words and  1275 shell-pairs
 IPart= 30 NShTot=          29 NBatch=           9 AvBLen=         3.2
 IPart= 11 NShTot=          41 NBatch=          17 AvBLen=         2.4
 IPart= 16 NShTot=          35 NBatch=          12 AvBLen=         2.9
 IPart= 26 NShTot=          32 NBatch=          11 AvBLen=         2.9
 IPart= 21 NShTot=          35 NBatch=          12 AvBLen=         2.9
 IPart=  8 NShTot=          45 NBatch=          20 AvBLen=         2.3
 IPart= 19 NShTot=          35 NBatch=          12 AvBLen=         2.9
 IPart= 14 NShTot=          40 NBatch=          17 AvBLen=         2.4
 IPart=  2 NShTot=          54 NBatch=          27 AvBLen=         2.0
 IPart=  4 NShTot=          49 NBatch=          22 AvBLen=         2.2
 IPart= 18 NShTot=          35 NBatch=          12 AvBLen=         2.9
 IPart=  0 NShTot=          66 NBatch=          37 AvBLen=         1.8
 IPart= 10 NShTot=          45 NBatch=          20 AvBLen=         2.3
 IPart= 23 NShTot=          34 NBatch=          11 AvBLen=         3.1
 IPart= 12 NShTot=          40 NBatch=          17 AvBLen=         2.4
 IPart=  6 NShTot=          46 NBatch=          21 AvBLen=         2.2
 IPart= 25 NShTot=          32 NBatch=          11 AvBLen=         2.9
 IPart= 27 NShTot=          32 NBatch=          11 AvBLen=         2.9
 IPart=  7 NShTot=          46 NBatch=          21 AvBLen=         2.2
 IPart=  9 NShTot=          45 NBatch=          20 AvBLen=         2.3
 IPart= 17 NShTot=          35 NBatch=          12 AvBLen=         2.9
 IPart=  5 NShTot=          47 NBatch=          22 AvBLen=         2.1
 IPart= 29 NShTot=          31 NBatch=          11 AvBLen=         2.8
 IPart=  1 NShTot=          59 NBatch=          31 AvBLen=         1.9
 IPart= 13 NShTot=          40 NBatch=          17 AvBLen=         2.4
 IPart=  3 NShTot=          49 NBatch=          22 AvBLen=         2.2
 IPart= 15 NShTot=          37 NBatch=          14 AvBLen=         2.6
 IPart= 20 NShTot=          35 NBatch=          12 AvBLen=         2.9
 IPart= 28 NShTot=          31 NBatch=          11 AvBLen=         2.8
 IPart= 24 NShTot=          32 NBatch=          11 AvBLen=         2.9
 IPart= 31 NShTot=          29 NBatch=           9 AvBLen=         3.2
 IPart= 22 NShTot=          34 NBatch=          11 AvBLen=         3.1
 PrSmSu:  NxtVal=             33.
 Entering OneElI...
 Calculate potential energy integrals
    NBasis = 155  MinDer = 1  MaxDer = 1
 Requested accuracy = 0.1000D-12
 PrsmSu:  NPrtUS=  32 ThrOK=T IAlg=1 NPAlg=1 LenDen=           0.
 Prism:   IPart=     0 DynPar=F LinDyn=F Incr=           1.
 PRISM was handed    13083705 working-precision words and  1275 shell-pairs
 PRISM was handed    13083705 working-precision words and  1275 shell-pairs
 PRISM was handed    13083705 working-precision words and  1275 shell-pairs
 PRISM was handed    13083705 working-precision words and  1275 shell-pairs
 PRISM was handed    13083705 working-precision words and  1275 shell-pairs
 PRISM was handed    13083705 working-precision words and  1275 shell-pairs
 PRISM was handed    13083705 working-precision words and  1275 shell-pairs
 PRISM was handed    13083705 working-precision words and  1275 shell-pairs
 PRISM was handed    13083705 working-precision words and  1275 shell-pairs
 PRISM was handed    13083705 working-precision words and  1275 shell-pairs
 PRISM was handed    13083705 working-precision words and  1275 shell-pairs
 PRISM was handed    13083705 working-precision words and  1275 shell-pairs
 PRISM was handed    13083705 working-precision words and  1275 shell-pairs
 PRISM was handed    13083705 working-precision words and  1275 shell-pairs
 PRISM was handed    13083705 working-precision words and  1275 shell-pairs
 PRISM was handed    13083705 working-precision words and  1275 shell-pairs
 PRISM was handed    13083705 working-precision words and  1275 shell-pairs
 PRISM was handed    13083705 working-precision words and  1275 shell-pairs
 PRISM was handed    13083705 working-precision words and  1275 shell-pairs
 PRISM was handed    13083705 working-precision words and  1275 shell-pairs
 PRISM was handed    13083705 working-precision words and  1275 shell-pairs
 PRISM was handed    13083705 working-precision words and  1275 shell-pairs
 PRISM was handed    13083705 working-precision words and  1275 shell-pairs
 PRISM was handed    13083705 working-precision words and  1275 shell-pairs
 PRISM was handed    13083705 working-precision words and  1275 shell-pairs
 PRISM was handed    13083705 working-precision words and  1275 shell-pairs
 PRISM was handed    13083705 working-precision words and  1275 shell-pairs
 PRISM was handed    13083705 working-precision words and  1275 shell-pairs
 PRISM was handed    13083705 working-precision words and  1275 shell-pairs
 PRISM was handed    13083705 working-precision words and  1275 shell-pairs
 PRISM was handed    13083705 working-precision words and  1275 shell-pairs
 PRISM was handed    13083705 working-precision words and  1275 shell-pairs
 IPart= 24 NShTot=         160 NBatch=          32 AvBLen=         5.0
 IPart= 15 NShTot=         180 NBatch=          36 AvBLen=         5.0
 IPart= 31 NShTot=         145 NBatch=          29 AvBLen=         5.0
 IPart= 17 NShTot=         175 NBatch=          35 AvBLen=         5.0
 IPart=  7 NShTot=         225 NBatch=          45 AvBLen=         5.0
 IPart= 28 NShTot=         160 NBatch=          32 AvBLen=         5.0
 IPart=  3 NShTot=         255 NBatch=          51 AvBLen=         5.0
 IPart=  9 NShTot=         220 NBatch=          44 AvBLen=         5.0
 IPart= 13 NShTot=         200 NBatch=          40 AvBLen=         5.0
 IPart= 22 NShTot=         170 NBatch=          34 AvBLen=         5.0
 IPart=  5 NShTot=         230 NBatch=          46 AvBLen=         5.0
 IPart= 20 NShTot=         175 NBatch=          35 AvBLen=         5.0
 IPart= 11 NShTot=         205 NBatch=          41 AvBLen=         5.0
 IPart= 26 NShTot=         160 NBatch=          32 AvBLen=         5.0
 IPart=  1 NShTot=         300 NBatch=          60 AvBLen=         5.0
 IPart= 29 NShTot=         160 NBatch=          32 AvBLen=         5.0
 IPart= 18 NShTot=         175 NBatch=          35 AvBLen=         5.0
 IPart= 25 NShTot=         160 NBatch=          32 AvBLen=         5.0
 IPart= 10 NShTot=         220 NBatch=          44 AvBLen=         5.0
 IPart= 30 NShTot=         145 NBatch=          29 AvBLen=         5.0
 IPart= 23 NShTot=         170 NBatch=          34 AvBLen=         5.0
 IPart=  0 NShTot=         340 NBatch=          68 AvBLen=         5.0
 IPart= 21 NShTot=         175 NBatch=          35 AvBLen=         5.0
 IPart= 14 NShTot=         190 NBatch=          38 AvBLen=         5.0
 IPart= 19 NShTot=         175 NBatch=          35 AvBLen=         5.0
 IPart= 12 NShTot=         200 NBatch=          40 AvBLen=         5.0
 IPart=  8 NShTot=         220 NBatch=          44 AvBLen=         5.0
 IPart= 16 NShTot=         180 NBatch=          36 AvBLen=         5.0
 IPart=  2 NShTot=         275 NBatch=          55 AvBLen=         5.0
 IPart= 27 NShTot=         160 NBatch=          32 AvBLen=         5.0
 IPart=  4 NShTot=         245 NBatch=          49 AvBLen=         5.0
 IPart=  6 NShTot=         225 NBatch=          45 AvBLen=         5.0
 PrSmSu:  NxtVal=             33.
 l701 out
 I=    0 X=   3.941637588831D-02 Y=   3.227739927987D-01 Z=   2.307309510735D-02
 I=    1 X=   7.335451995270D-02 Y=   5.702488282417D-01 Z=   4.327450029030D-02
 I=    2 X=   1.515779099478D-02 Y=   3.399093406685D-02 Z=   2.357630945508D+00
 I=    3 X=   2.050026592397D+00 Y=   3.418514961724D-02 Z=  -1.164504825800D+00
 I=    4 X=  -2.016528523915D+00 Y=   2.643988165072D-02 Z=  -1.165031955043D+00
 I=    5 X=  -1.220103794291D-01 Y=  -6.648647935765D-01 Z=  -7.136866495458D-02
 ICntrl=      2127.
 Calling FoFJK, ICntrl=      2127 FMM=F ISym2X=0 I1Cent= 0 IOpClX= 1 NMat=1 NMatS=1 NMatT=0.
 FoFJK:  IHMeth= 1 ICntrl=    2127 DoSepK=T KAlg= 0 I1Cent=   0 FoldK=F
 IRaf=         1 NMat=   1 IRICut=       1 DoRegI=T DoRafI=F ISym2E= 0.
 FoFCou: FMM=F IPFlag=           0 FMFlag=      100000 FMFlg1=         800
         NFxFlg=           0 DoJE=F BraDBF=F KetDBF=F FulRan=T
         wScrn=  0.000000 ICntrl=    2527 IOpCl=  0 I1Cent=           0 NGrid=           0
         NMat0=    1 NMatS0=      1 NMatT0=    0 NMatD0=    1 NMtDS0=    0 NMtDT0=    0
 Symmetry not used in FoFCou.
 FoFCou:  KetSym=F NOpSet=  1 NOpAb=1 NOp=  1.
 FoFCou:  CnvScl= 1.00D+00 Thresh= 1.00D-10 IAcrcy=      10.
 PrismS was handed   419298190 working-precision words and  1275 shell-pairs
 FoFCou: LinMIO=F DoNuc=F BraDBF=F KetDBF=F HaveP=T PDBF=F HaveZ=T HaveW=F
         NIJTC =      10 NIJTAt=       0 NIJTCD=       0 NIJTT =      10
         IJTBeg=       1 IJTEnd=      10 KLTBeg=       1 KLTEnd=      10
         IPTBeg=       1 IPTEnd=      10 IPTBCv=       1 IPTECv=      10
         IZTBeg=       1 IZTEnd=      10 IZTBCv=       1 IZTECv=      10
         IWTBeg=      11 IWTEnd=      10 IWTBCv=      11 IWTECv=      10
         INTBeg=       1 INTEnd=       0 IFTBCv=       1 IFTECv=      10
 NCel replicated for PrismC:     1
 CoulSu:  IncDef=  1024 NBBP=         813450 NTPThr=   100 NPartT=   32 Incr=         254 LDynOK=F.
 CoulSu:  NPrtUS=  32 ThrOK=T IAlg=1 NPAlg=1 LenDen=           0 LWGrdD=           0 DoCopy=F.
 Enter PrismC: JobTyp=21 DoJE=F Cont=F.
 Enter PrismC: JobTyp=21 DoJE=F Cont=F.
 PrismC:  IPart=     0 DynPar=T LinDyn=F Incr=         254 UseFst=F UseS4=T IGathr=2.
 PrismC was handed    13082749 working-precision words and  1275 shell-pairs
 Enter PrismC: JobTyp=21 DoJE=F Cont=F.
 Enter PrismC: JobTyp=21 DoJE=F Cont=F.
 Enter PrismC: JobTyp=21 DoJE=F Cont=F.
 Enter PrismC: JobTyp=21 DoJE=F Cont=F.
 Enter PrismC: JobTyp=21 DoJE=F Cont=F.
 Enter PrismC: JobTyp=21 DoJE=F Cont=F.
 Enter PrismC: JobTyp=21 DoJE=F Cont=F.
 Enter PrismC: JobTyp=21 DoJE=F Cont=F.
 Enter PrismC: JobTyp=21 DoJE=F Cont=F.
 Enter PrismC: JobTyp=21 DoJE=F Cont=F.
 Enter PrismC: JobTyp=21 DoJE=F Cont=F.
 Enter PrismC: JobTyp=21 DoJE=F Cont=F.
 Enter PrismC: JobTyp=21 DoJE=F Cont=F.
 Enter PrismC: JobTyp=21 DoJE=F Cont=F.
 Enter PrismC: JobTyp=21 DoJE=F Cont=F.
 Enter PrismC: JobTyp=21 DoJE=F Cont=F.
 Enter PrismC: JobTyp=21 DoJE=F Cont=F.
 Enter PrismC: JobTyp=21 DoJE=F Cont=F.
 Enter PrismC: JobTyp=21 DoJE=F Cont=F.
 Enter PrismC: JobTyp=21 DoJE=F Cont=F.
 Enter PrismC: JobTyp=21 DoJE=F Cont=F.
 PrismC was handed    13082749 working-precision words and  1275 shell-pairs
 Enter PrismC: JobTyp=21 DoJE=F Cont=F.
 PrismC was handed    13082749 working-precision words and  1275 shell-pairs
 Enter PrismC: JobTyp=21 DoJE=F Cont=F.
 PrismC was handed    13082749 working-precision words and  1275 shell-pairs
 Enter PrismC: JobTyp=21 DoJE=F Cont=F.
 PrismC was handed    13082749 working-precision words and  1275 shell-pairs
 Enter PrismC: JobTyp=21 DoJE=F Cont=F.
 PrismC was handed    13082749 working-precision words and  1275 shell-pairs
 Enter PrismC: JobTyp=21 DoJE=F Cont=F.
 PrismC was handed    13082749 working-precision words and  1275 shell-pairs
 Enter PrismC: JobTyp=21 DoJE=F Cont=F.
 PrismC was handed    13082749 working-precision words and  1275 shell-pairs
 Enter PrismC: JobTyp=21 DoJE=F Cont=F.
 PrismC was handed    13082749 working-precision words and  1275 shell-pairs
 Enter PrismC: JobTyp=21 DoJE=F Cont=F.
 PrismC was handed    13082749 working-precision words and  1275 shell-pairs
 Enter PrismC: JobTyp=21 DoJE=F Cont=F.
 PrismC was handed    13082749 working-precision words and  1275 shell-pairs
 PrismC was handed    13082749 working-precision words and  1275 shell-pairs
 PrismC was handed    13082749 working-precision words and  1275 shell-pairs
 PrismC was handed    13082749 working-precision words and  1275 shell-pairs
 PrismC was handed    13082749 working-precision words and  1275 shell-pairs
 PrismC was handed    13082749 working-precision words and  1275 shell-pairs
 PrismC was handed    13082749 working-precision words and  1275 shell-pairs
 PrismC was handed    13082749 working-precision words and  1275 shell-pairs
 PrismC was handed    13082749 working-precision words and  1275 shell-pairs
 PrismC was handed    13082749 working-precision words and  1275 shell-pairs
 PrismC was handed    13082749 working-precision words and  1275 shell-pairs
 PrismC was handed    13082749 working-precision words and  1275 shell-pairs
 PrismC was handed    13082749 working-precision words and  1275 shell-pairs
 PrismC was handed    13082749 working-precision words and  1275 shell-pairs
 PrismC was handed    13082749 working-precision words and  1275 shell-pairs
 PrismC was handed    13082749 working-precision words and  1275 shell-pairs
 PrismC was handed    13082749 working-precision words and  1275 shell-pairs
 PrismC was handed    13082749 working-precision words and  1275 shell-pairs
 PrismC was handed    13082749 working-precision words and  1275 shell-pairs
 PrismC was handed    13082749 working-precision words and  1275 shell-pairs
 PrismC was handed    13082749 working-precision words and  1275 shell-pairs
 PrismC was handed    13082749 working-precision words and  1275 shell-pairs
 IPart= 25 NShTot=       25019 NShNF=       25019 NShFF=           0 NBatch=         255 AvBLen=        98.1
 IPart= 26 NShTot=       26454 NShNF=       26454 NShFF=           0 NBatch=         257 AvBLen=       102.9
 IPart= 15 NShTot=       23511 NShNF=       23511 NShFF=           0 NBatch=         263 AvBLen=        89.4
 IPart= 14 NShTot=       23404 NShNF=       23404 NShFF=           0 NBatch=         244 AvBLen=        95.9
 IPart= 30 NShTot=       24440 NShNF=       24440 NShFF=           0 NBatch=         232 AvBLen=       105.3
 IPart= 21 NShTot=       27372 NShNF=       27372 NShFF=           0 NBatch=         258 AvBLen=       106.1
 IPart= 22 NShTot=       22904 NShNF=       22904 NShFF=           0 NBatch=         268 AvBLen=        85.5
 IPart= 29 NShTot=       24786 NShNF=       24786 NShFF=           0 NBatch=         260 AvBLen=        95.3
 IPart= 11 NShTot=       24053 NShNF=       24053 NShFF=           0 NBatch=         256 AvBLen=        94.0
 IPart= 18 NShTot=       25414 NShNF=       25414 NShFF=           0 NBatch=         275 AvBLen=        92.4
 IPart= 13 NShTot=       24730 NShNF=       24730 NShFF=           0 NBatch=         251 AvBLen=        98.5
 IPart= 16 NShTot=       25860 NShNF=       25860 NShFF=           0 NBatch=         262 AvBLen=        98.7
 IPart=  1 NShTot=       27506 NShNF=       27506 NShFF=           0 NBatch=         267 AvBLen=       103.0
 IPart= 24 NShTot=       24547 NShNF=       24547 NShFF=           0 NBatch=         264 AvBLen=        93.0
 IPart= 10 NShTot=       28555 NShNF=       28555 NShFF=           0 NBatch=         256 AvBLen=       111.5
 IPart= 12 NShTot=       24654 NShNF=       24654 NShFF=           0 NBatch=         257 AvBLen=        95.9
 IPart=  6 NShTot=       25721 NShNF=       25721 NShFF=           0 NBatch=         268 AvBLen=        96.0
 IPart=  7 NShTot=       23910 NShNF=       23910 NShFF=           0 NBatch=         195 AvBLen=       122.6
 IPart=  3 NShTot=       23681 NShNF=       23681 NShFF=           0 NBatch=         253 AvBLen=        93.6
 IPart=  4 NShTot=       26780 NShNF=       26780 NShFF=           0 NBatch=         260 AvBLen=       103.0
 IPart= 31 NShTot=       27328 NShNF=       27328 NShFF=           0 NBatch=         253 AvBLen=       108.0
 IPart=  2 NShTot=       26372 NShNF=       26372 NShFF=           0 NBatch=         271 AvBLen=        97.3
 IPart= 28 NShTot=       26920 NShNF=       26920 NShFF=           0 NBatch=         266 AvBLen=       101.2
 IPart=  9 NShTot=       22702 NShNF=       22702 NShFF=           0 NBatch=         242 AvBLen=        93.8
 IPart= 20 NShTot=       22622 NShNF=       22622 NShFF=           0 NBatch=         264 AvBLen=        85.7
 IPart=  8 NShTot=       23213 NShNF=       23213 NShFF=           0 NBatch=         259 AvBLen=        89.6
 IPart= 23 NShTot=       24011 NShNF=       24011 NShFF=           0 NBatch=         254 AvBLen=        94.5
 IPart= 19 NShTot=       27123 NShNF=       27123 NShFF=           0 NBatch=         264 AvBLen=       102.7
 IPart=  0 NShTot=       24909 NShNF=       24909 NShFF=           0 NBatch=         191 AvBLen=       130.4
 IPart= 17 NShTot=       25896 NShNF=       25896 NShFF=           0 NBatch=         274 AvBLen=        94.5
 IPart=  5 NShTot=       26754 NShNF=       26754 NShFF=           0 NBatch=         274 AvBLen=        97.6
 IPart= 27 NShTot=       23100 NShNF=       23100 NShFF=           0 NBatch=         253 AvBLen=        91.3
 CoulSu:  NxtVal=         897129.
 FoFCou: FMM=F IPFlag=           0 FMFlag=      100000 FMFlg1=         800
         NFxFlg=           0 DoJE=F BraDBF=F KetDBF=F FulRan=T
         wScrn=  0.000000 ICntrl=    2127 IOpCl=  1 I1Cent=           0 NGrid=           0
         NMat0=    1 NMatS0=      0 NMatT0=    1 NMatD0=    1 NMtDS0=    0 NMtDT0=    0
         CW=    0.222036    0.777964
         WU=    0.000000   12.500000
 Symmetry not used in FoFCou.
 FoFCou:  KetSym=F NOpSet=  1 NOpAb=1 NOp=  1.
 FoFCou:  CnvScl= 1.00D+00 Thresh= 1.00D-10 IAcrcy=      10.
 PrismS was handed   419296950 working-precision words and  1275 shell-pairs
 FoFCou: LinMIO=F DoNuc=F BraDBF=F KetDBF=F HaveP=T PDBF=F HaveZ=T HaveW=F
         NIJTC =      10 NIJTAt=       0 NIJTCD=       0 NIJTT =      10
         IJTBeg=       1 IJTEnd=      10 KLTBeg=       1 KLTEnd=      10
         IPTBeg=       1 IPTEnd=      10 IPTBCv=       1 IPTECv=      10
         IZTBeg=       1 IZTEnd=      10 IZTBCv=       1 IZTECv=      10
         IWTBeg=      11 IWTEnd=      10 IWTBCv=      11 IWTECv=      10
         INTBeg=       1 INTEnd=       0 IFTBCv=       1 IFTECv=      10
 NCel replicated for PrismC:     1
 CoulSu:  IncDef=  1024 NBBP=         813450 NTPThr=   100 NPartT=   32 Incr=         254 LDynOK=F.
 CoulSu:  NPrtUS=  32 ThrOK=T IAlg=1 NPAlg=1 LenDen=           0 LWGrdD=           0 DoCopy=F.
 Enter PrismC: JobTyp=21 DoJE=F Cont=F.
 Linear combination for Coulomb/exchange, wScrn=  0.000000
 CW=    0.222036    0.777964
 WU=    0.000000   12.500000
 Enter PrismC: JobTyp=21 DoJE=F Cont=F.
 Enter PrismC: JobTyp=21 DoJE=F Cont=F.
 Linear combination for Coulomb/exchange, wScrn=  0.000000
 CW=    0.222036    0.777964
 WU=    0.000000   12.500000
 Enter PrismC: JobTyp=21 DoJE=F Cont=F.
 Linear combination for Coulomb/exchange, wScrn=  0.000000
 CW=    0.222036    0.777964
 WU=    0.000000   12.500000
 Enter PrismC: JobTyp=21 DoJE=F Cont=F.
 Linear combination for Coulomb/exchange, wScrn=  0.000000
 CW=    0.222036    0.777964
 WU=    0.000000   12.500000
 Enter PrismC: JobTyp=21 DoJE=F Cont=F.
 Linear combination for Coulomb/exchange, wScrn=  0.000000
 CW=    0.222036    0.777964
 WU=    0.000000   12.500000
 PrismC was handed    13082711 working-precision words and  1275 shell-pairs
 Enter PrismC: JobTyp=21 DoJE=F Cont=F.
 Linear combination for Coulomb/exchange, wScrn=  0.000000
 CW=    0.222036    0.777964
 WU=    0.000000   12.500000
 Enter PrismC: JobTyp=21 DoJE=F Cont=F.
 Linear combination for Coulomb/exchange, wScrn=  0.000000
 CW=    0.222036    0.777964
 WU=    0.000000   12.500000
 PrismC was handed    13082711 working-precision words and  1275 shell-pairs
 Enter PrismC: JobTyp=21 DoJE=F Cont=F.
 Linear combination for Coulomb/exchange, wScrn=  0.000000
 CW=    0.222036    0.777964
 WU=    0.000000   12.500000
 PrismC:  IPart=     0 DynPar=T LinDyn=F Incr=         254 UseFst=F UseS4=T IGathr=2.
 PrismC was handed    13082711 working-precision words and  1275 shell-pairs
 Enter PrismC: JobTyp=21 DoJE=F Cont=F.
 Linear combination for Coulomb/exchange, wScrn=  0.000000
 CW=    0.222036    0.777964
 WU=    0.000000   12.500000
 Enter PrismC: JobTyp=21 DoJE=F Cont=F.
 Linear combination for Coulomb/exchange, wScrn=  0.000000
 CW=    0.222036    0.777964
 WU=    0.000000   12.500000
 Enter PrismC: JobTyp=21 DoJE=F Cont=F.
 Linear combination for Coulomb/exchange, wScrn=  0.000000
 CW=    0.222036    0.777964
 WU=    0.000000   12.500000
 Enter PrismC: JobTyp=21 DoJE=F Cont=F.
 Linear combination for Coulomb/exchange, wScrn=  0.000000
 CW=    0.222036    0.777964
 WU=    0.000000   12.500000
 Enter PrismC: JobTyp=21 DoJE=F Cont=F.
 Linear combination for Coulomb/exchange, wScrn=  0.000000
 CW=    0.222036    0.777964
 WU=    0.000000   12.500000
 Enter PrismC: JobTyp=21 DoJE=F Cont=F.
 Linear combination for Coulomb/exchange, wScrn=  0.000000
 CW=    0.222036    0.777964
 WU=    0.000000   12.500000
 Linear combination for Coulomb/exchange, wScrn=  0.000000
 CW=    0.222036    0.777964
 WU=    0.000000   12.500000
 PrismC was handed    13082711 working-precision words and  1275 shell-pairs
 Enter PrismC: JobTyp=21 DoJE=F Cont=F.
 Linear combination for Coulomb/exchange, wScrn=  0.000000
 CW=    0.222036    0.777964
 WU=    0.000000   12.500000
 PrismC was handed    13082711 working-precision words and  1275 shell-pairs
 Enter PrismC: JobTyp=21 DoJE=F Cont=F.
 Linear combination for Coulomb/exchange, wScrn=  0.000000
 CW=    0.222036    0.777964
 WU=    0.000000   12.500000
 Enter PrismC: JobTyp=21 DoJE=F Cont=F.
 Linear combination for Coulomb/exchange, wScrn=  0.000000
 CW=    0.222036    0.777964
 WU=    0.000000   12.500000
 PrismC was handed    13082711 working-precision words and  1275 shell-pairs
 Enter PrismC: JobTyp=21 DoJE=F Cont=F.
 Linear combination for Coulomb/exchange, wScrn=  0.000000
 CW=    0.222036    0.777964
 WU=    0.000000   12.500000
 Enter PrismC: JobTyp=21 DoJE=F Cont=F.
 Linear combination for Coulomb/exchange, wScrn=  0.000000
 CW=    0.222036    0.777964
 WU=    0.000000   12.500000
 Enter PrismC: JobTyp=21 DoJE=F Cont=F.
 Linear combination for Coulomb/exchange, wScrn=  0.000000
 CW=    0.222036    0.777964
 WU=    0.000000   12.500000
 Enter PrismC: JobTyp=21 DoJE=F Cont=F.
 Linear combination for Coulomb/exchange, wScrn=  0.000000
 CW=    0.222036    0.777964
 WU=    0.000000   12.500000
 PrismC was handed    13082711 working-precision words and  1275 shell-pairs
 PrismC was handed    13082711 working-precision words and  1275 shell-pairs
 Enter PrismC: JobTyp=21 DoJE=F Cont=F.
 Linear combination for Coulomb/exchange, wScrn=  0.000000
 CW=    0.222036    0.777964
 WU=    0.000000   12.500000
 Enter PrismC: JobTyp=21 DoJE=F Cont=F.
 Linear combination for Coulomb/exchange, wScrn=  0.000000
 CW=    0.222036    0.777964
 WU=    0.000000   12.500000
 Enter PrismC: JobTyp=21 DoJE=F Cont=F.
 Linear combination for Coulomb/exchange, wScrn=  0.000000
 CW=    0.222036    0.777964
 WU=    0.000000   12.500000
 PrismC was handed    13082711 working-precision words and  1275 shell-pairs
 PrismC was handed    13082711 working-precision words and  1275 shell-pairs
 Enter PrismC: JobTyp=21 DoJE=F Cont=F.
 Linear combination for Coulomb/exchange, wScrn=  0.000000
 CW=    0.222036    0.777964
 WU=    0.000000   12.500000
 Enter PrismC: JobTyp=21 DoJE=F Cont=F.
 Linear combination for Coulomb/exchange, wScrn=  0.000000
 CW=    0.222036    0.777964
 WU=    0.000000   12.500000
 Enter PrismC: JobTyp=21 DoJE=F Cont=F.
 Linear combination for Coulomb/exchange, wScrn=  0.000000
 CW=    0.222036    0.777964
 WU=    0.000000   12.500000
 PrismC was handed    13082711 working-precision words and  1275 shell-pairs
 PrismC was handed    13082711 working-precision words and  1275 shell-pairs
 PrismC was handed    13082711 working-precision words and  1275 shell-pairs
 PrismC was handed    13082711 working-precision words and  1275 shell-pairs
 Enter PrismC: JobTyp=21 DoJE=F Cont=F.
 Linear combination for Coulomb/exchange, wScrn=  0.000000
 CW=    0.222036    0.777964
 WU=    0.000000   12.500000
 PrismC was handed    13082711 working-precision words and  1275 shell-pairs
 PrismC was handed    13082711 working-precision words and  1275 shell-pairs
 PrismC was handed    13082711 working-precision words and  1275 shell-pairs
 Enter PrismC: JobTyp=21 DoJE=F Cont=F.
 Linear combination for Coulomb/exchange, wScrn=  0.000000
 CW=    0.222036    0.777964
 WU=    0.000000   12.500000
 PrismC was handed    13082711 working-precision words and  1275 shell-pairs
 Enter PrismC: JobTyp=21 DoJE=F Cont=F.
 Linear combination for Coulomb/exchange, wScrn=  0.000000
 CW=    0.222036    0.777964
 WU=    0.000000   12.500000
 PrismC was handed    13082711 working-precision words and  1275 shell-pairs
 PrismC was handed    13082711 working-precision words and  1275 shell-pairs
 PrismC was handed    13082711 working-precision words and  1275 shell-pairs
 PrismC was handed    13082711 working-precision words and  1275 shell-pairs
 Enter PrismC: JobTyp=21 DoJE=F Cont=F.
 Linear combination for Coulomb/exchange, wScrn=  0.000000
 CW=    0.222036    0.777964
 WU=    0.000000   12.500000
 PrismC was handed    13082711 working-precision words and  1275 shell-pairs
 PrismC was handed    13082711 working-precision words and  1275 shell-pairs
 PrismC was handed    13082711 working-precision words and  1275 shell-pairs
 PrismC was handed    13082711 working-precision words and  1275 shell-pairs
 PrismC was handed    13082711 working-precision words and  1275 shell-pairs
 PrismC was handed    13082711 working-precision words and  1275 shell-pairs
 PrismC was handed    13082711 working-precision words and  1275 shell-pairs
 PrismC was handed    13082711 working-precision words and  1275 shell-pairs
 PrismC was handed    13082711 working-precision words and  1275 shell-pairs
 PrismC was handed    13082711 working-precision words and  1275 shell-pairs
 IPart= 30 NShTot=       24093 NShNF=       24093 NShFF=           0 NBatch=         309 AvBLen=        78.0
 IPart= 15 NShTot=       21476 NShNF=       21476 NShFF=           0 NBatch=         321 AvBLen=        66.9
 IPart=  4 NShTot=       26227 NShNF=       26227 NShFF=           0 NBatch=         330 AvBLen=        79.5
 IPart= 24 NShTot=       23460 NShNF=       23460 NShFF=           0 NBatch=         341 AvBLen=        68.8
 IPart=  6 NShTot=       24163 NShNF=       24163 NShFF=           0 NBatch=         309 AvBLen=        78.2
 IPart= 11 NShTot=       27767 NShNF=       27767 NShFF=           0 NBatch=         325 AvBLen=        85.4
 IPart=  0 NShTot=       21053 NShNF=       21053 NShFF=           0 NBatch=         237 AvBLen=        88.8
 IPart=  9 NShTot=       27851 NShNF=       27851 NShFF=           0 NBatch=         288 AvBLen=        96.7
 IPart= 22 NShTot=       26932 NShNF=       26932 NShFF=           0 NBatch=         270 AvBLen=        99.7
 IPart= 23 NShTot=       23347 NShNF=       23347 NShFF=           0 NBatch=         246 AvBLen=        94.9
 IPart=  5 NShTot=       27430 NShNF=       27430 NShFF=           0 NBatch=         273 AvBLen=       100.5
 IPart= 26 NShTot=       28541 NShNF=       28541 NShFF=           0 NBatch=         332 AvBLen=        86.0
 IPart= 29 NShTot=       28789 NShNF=       28789 NShFF=           0 NBatch=         266 AvBLen=       108.2
 IPart=  8 NShTot=       24415 NShNF=       24415 NShFF=           0 NBatch=         269 AvBLen=        90.8
 IPart= 13 NShTot=       25468 NShNF=       25468 NShFF=           0 NBatch=         291 AvBLen=        87.5
 IPart= 14 NShTot=       21965 NShNF=       21965 NShFF=           0 NBatch=         315 AvBLen=        69.7
 IPart=  3 NShTot=       27191 NShNF=       27191 NShFF=           0 NBatch=         327 AvBLen=        83.2
 IPart= 25 NShTot=       26531 NShNF=       26531 NShFF=           0 NBatch=         328 AvBLen=        80.9
 IPart= 21 NShTot=       23746 NShNF=       23746 NShFF=           0 NBatch=         281 AvBLen=        84.5
 IPart= 28 NShTot=       27446 NShNF=       27446 NShFF=           0 NBatch=         328 AvBLen=        83.7
 IPart= 10 NShTot=       24196 NShNF=       24196 NShFF=           0 NBatch=         258 AvBLen=        93.8
 IPart=  7 NShTot=       24335 NShNF=       24335 NShFF=           0 NBatch=         315 AvBLen=        77.3
 IPart= 17 NShTot=       23191 NShNF=       23191 NShFF=           0 NBatch=         285 AvBLen=        81.4
 IPart= 18 NShTot=       24882 NShNF=       24882 NShFF=           0 NBatch=         279 AvBLen=        89.2
 IPart= 12 NShTot=       26398 NShNF=       26398 NShFF=           0 NBatch=         331 AvBLen=        79.8
 IPart=  1 NShTot=       26390 NShNF=       26390 NShFF=           0 NBatch=         349 AvBLen=        75.6
 IPart= 27 NShTot=       26094 NShNF=       26094 NShFF=           0 NBatch=         267 AvBLen=        97.7
 IPart= 16 NShTot=       25163 NShNF=       25163 NShFF=           0 NBatch=         320 AvBLen=        78.6
 IPart= 19 NShTot=       24335 NShNF=       24335 NShFF=           0 NBatch=         340 AvBLen=        71.6
 IPart= 31 NShTot=       26342 NShNF=       26342 NShFF=           0 NBatch=         314 AvBLen=        83.9
 IPart=  2 NShTot=       22926 NShNF=       22926 NShFF=           0 NBatch=         333 AvBLen=        68.8
 IPart= 20 NShTot=       21882 NShNF=       21882 NShFF=           0 NBatch=         300 AvBLen=        72.9
 CoulSu:  NxtVal=         897129.
 ReadGW:  IGet=0 IStart=           1 Next=           1 LGW=           0.
 Remaining memory in FofDFT      399.95 Mw
 CkSvGd:  ISavGI=        -1 IRadAn=       5 IRASav=       5 ISavGd=        -1.
 CalDSu:  NPrtUS=  32 ThrOK=T IAlg=1 NPAlg=2 DoDPD=T LenP=       12090 LenD1P=             0.
 IPart=  0 IRanGd=          0 ScrnBf=T ScrnGd=T RCrit=4.00D+00 DoMicB=T.
 IPart= 26         2556 of         2556 points in       2 batches and        6 microbatches, Max-NSigAt=       5 Max-NSgAt2=       5
 IPart= 28         3267 of         3596 points in       4 batches and        8 microbatches, Max-NSigAt=       5 Max-NSgAt2=       5
 IPart= 24         2610 of         2642 points in       2 batches and        8 microbatches, Max-NSigAt=       5 Max-NSgAt2=       5
 IPart=  6         3149 of         3568 points in       4 batches and       29 microbatches, Max-NSigAt=       5 Max-NSgAt2=       5
 IPart= 29         2728 of         2732 points in       2 batches and        8 microbatches, Max-NSigAt=       5 Max-NSgAt2=       5
 IPart= 15         2754 of         2964 points in       3 batches and       27 microbatches, Max-NSigAt=       5 Max-NSgAt2=       5
 IPart= 16         3162 of         3568 points in       4 batches and       21 microbatches, Max-NSigAt=       5 Max-NSgAt2=       5
 IPart=  2         3349 of         3764 points in       4 batches and       22 microbatches, Max-NSigAt=       5 Max-NSgAt2=       5
 IPart= 30         3306 of         3596 points in       4 batches and        8 microbatches, Max-NSigAt=       5 Max-NSgAt2=       5
 IPart= 20         3029 of         3246 points in       3 batches and        7 microbatches, Max-NSigAt=       5 Max-NSgAt2=       5
 IPart=  1         2729 of         2964 points in       3 batches and       26 microbatches, Max-NSigAt=       5 Max-NSgAt2=       5
 IPart=  3         3164 of         3336 points in       3 batches and        8 microbatches, Max-NSigAt=       5 Max-NSgAt2=       5
 IPart= 22         3250 of         3568 points in       4 batches and       21 microbatches, Max-NSigAt=       5 Max-NSgAt2=       5
 IPart=  5         3081 of         3322 points in       3 batches and       45 microbatches, Max-NSigAt=       5 Max-NSgAt2=       5
 IPart= 11         3249 of         3568 points in       4 batches and       27 microbatches, Max-NSigAt=       5 Max-NSgAt2=       5
 IPart= 18         3091 of         3336 points in       3 batches and       29 microbatches, Max-NSigAt=       5 Max-NSgAt2=       5
 IPart= 13         3082 of         3142 points in       3 batches and       17 microbatches, Max-NSigAt=       5 Max-NSgAt2=       5
 IPart=  4         3618 of         4228 points in       6 batches and       61 microbatches, Max-NSigAt=       5 Max-NSgAt2=       5
 IPart= 17         3775 of         4144 points in       4 batches and       14 microbatches, Max-NSigAt=       5 Max-NSgAt2=       5
 IPart=  7         3510 of         3764 points in       4 batches and       26 microbatches, Max-NSigAt=       5 Max-NSgAt2=       5
 IPart= 31         3394 of         3592 points in       4 batches and       26 microbatches, Max-NSigAt=       5 Max-NSgAt2=       5
 IPart= 19         3574 of         3596 points in       3 batches and        9 microbatches, Max-NSigAt=       5 Max-NSgAt2=       5
 IPart= 12         4268 of         4818 points in       6 batches and       30 microbatches, Max-NSigAt=       5 Max-NSgAt2=       5
 IPart=  9         4148 of         4528 points in       5 batches and       27 microbatches, Max-NSigAt=       5 Max-NSgAt2=       5
 IPart= 27         3568 of         3568 points in       3 batches and        9 microbatches, Max-NSigAt=       5 Max-NSgAt2=       5
 IPart= 21         3508 of         3540 points in       3 batches and       11 microbatches, Max-NSigAt=       5 Max-NSgAt2=       5
 IPart= 25         3536 of         3540 points in       3 batches and       12 microbatches, Max-NSigAt=       5 Max-NSgAt2=       5
 IPart= 14         3974 of         4368 points in       5 batches and       31 microbatches, Max-NSigAt=       5 Max-NSgAt2=       5
 IPart=  8         4060 of         4454 points in       5 batches and       47 microbatches, Max-NSigAt=       5 Max-NSgAt2=       5
 IPart= 23         3540 of         3540 points in       3 batches and       11 microbatches, Max-NSigAt=       5 Max-NSgAt2=       5
 IPart= 10         3600 of         3850 points in       4 batches and       33 microbatches, Max-NSigAt=       5 Max-NSgAt2=       5
 IPart=  0         3492 of         3564 points in       3 batches and       12 microbatches, Max-NSigAt=       5 Max-NSgAt2=       5
 Forces at end of L703
 I=    0 X=   3.941637588831D-02 Y=   3.227739927987D-01 Z=   2.307309510735D-02
 I=    1 X=   4.105539531321D-03 Y=   2.774254121324D-02 Z=   2.397154488017D-03
 I=    2 X=   2.359413018763D-04 Y=  -1.708861536182D-03 Z=   3.092936271543D-05
 I=    3 X=   1.386580544152D-04 Y=  -1.728006294256D-03 Z=   1.910790144433D-04
 I=    4 X=  -1.642239610837D-04 Y=  -5.151011977999D-03 Z=  -9.752718962397D-05
 I=    5 X=  -4.315914926523D-03 Y=  -1.915466140480D-02 Z=  -2.521635675537D-03
 FrcOut:
 IF    =    36 IFX   =    51 IFXYZ =    66
 IFFX  =    81 IFFFX =   201 IFLen =    15
 IFFLen=   120 IFFFLn=     0 IEDerv=   201
 LEDerv=   773 IFroze=  1163 ICStrt= 39591
 FCEst1:  Generated internal coordinate force constants:
                1             2             3             4             5 
      1  0.727780D+00
      2  0.121174D-01  0.234599D+00
      3 -0.340411D-02  0.706888D-02  0.731848D+00
      4 -0.116762D+00 -0.615989D-02  0.263068D-02  0.780910D-01
      5 -0.616724D-02 -0.716924D-01  0.172231D-01  0.591877D-02  0.484931D-01
      6  0.000000D+00  0.000000D+00 -0.362127D+00  0.000000D+00  0.000000D+00
      7 -0.299742D+00 -0.309358D-02  0.105523D+00  0.192789D-01 -0.206626D-04
      8  0.118225D-01 -0.716516D-01 -0.139749D-01 -0.413602D-04  0.108503D-01
      9  0.108175D+00 -0.536427D-02 -0.179150D+00  0.334296D-01 -0.358290D-04
     10 -0.300436D+00 -0.723200D-03 -0.106651D+00  0.193124D-01  0.422880D-04
     11 -0.156142D-01 -0.680140D-01 -0.906219D-02  0.561112D-04  0.108411D-01
     12 -0.106672D+00 -0.457637D-03 -0.177505D+00 -0.334222D-01 -0.136185D-03
     13 -0.108404D-01 -0.214076D-02  0.190093D-02  0.798872D-04  0.226844D-03
     14 -0.215841D-02 -0.232414D-01 -0.125493D-02  0.226366D-03  0.150791D-02
     15  0.190056D-02 -0.124698D-02 -0.130660D-01 -0.263804D-02 -0.170511D-01
                6             7             8             9            10 
      6  0.362127D+00
      7  0.000000D+00  0.291240D+00
      8  0.000000D+00  0.297475D-02  0.484816D-01
      9  0.000000D+00 -0.122917D+00  0.515822D-02  0.148989D+00
     10  0.000000D+00 -0.964814D-02 -0.967972D-04 -0.167299D-01  0.290804D+00
     11  0.000000D+00  0.279459D-04  0.108411D-01  0.484582D-04  0.768501D-03
     12  0.000000D+00  0.166969D-01  0.104515D-03  0.289524D-01  0.123427D+00
     13  0.000000D+00 -0.112917D-02 -0.146591D-01 -0.195798D-02 -0.323903D-04
     14  0.000000D+00  0.111542D-03  0.147860D-02  0.193413D-03  0.920761D-05
     15  0.000000D+00  0.697092D-03  0.871217D-02  0.120876D-02 -0.463969D-04
               11            12            13            14            15 
     11  0.493863D-01
     12  0.487491D-03  0.148522D+00
     13  0.147617D-01 -0.297314D-04  0.119221D-01
     14 -0.305441D-02  0.181570D-05  0.181129D-02  0.233093D-01
     15  0.852624D-02  0.307450D-04  0.867825D-04  0.105970D-02  0.118265D-01
 Quadrupole    = 7.74588669D-01-1.55615100D+00 7.81562332D-01
                -9.64981288D-02-5.88848050D-03-5.65772645D-02
 -------------------------------------------------------------------
 Center     Atomic                   Forces (Hartrees/Bohr)
 Number     Number              X              Y              Z
 -------------------------------------------------------------------
      1        6          -0.004105540   -0.027742541   -0.002397154
      2        1          -0.000235941    0.001708862   -0.000030929
      3        1          -0.000138658    0.001728006   -0.000191079
      4        1           0.000164224    0.005151012    0.000097527
      5        1           0.004315915    0.019154661    0.002521636
 -------------------------------------------------------------------
 Cartesian Forces:  Max     0.027742541 RMS     0.009006387
 From PutF, contents of force:
   1   -0.6043240649D-02
   2   -0.3477395610D-02
   3   -0.2059623844D-03
   4    0.4783981590D-03
   5    0.1298596762D-04
   6    0.9086190024D-02
   7   -0.2465622660D-04
   8   -0.3092936272D-04
   9   -0.1973598864D-01
 -----------------------------------------------------------------------------------------------
                       Internal Coordinate Forces (Hartree/Bohr or radian)
  Cent   Atom   N1       Length/X         N2         Alpha/Y        N3         Beta/Z          J
 -----------------------------------------------------------------------------------------------
      1  C 
      2  H        1  -0.000031(     1)
      3  H        1  -0.000025(     2)      2   0.000478(     5)
      4  H        1  -0.000206(     3)      2   0.000013(     6)      3   0.009086(     8)     0
      5  H        1  -0.019736(     4)      2  -0.003477(     7)      3  -0.006043(     9)     0
 -----------------------------------------------------------------------------------------------
 Internal  Forces:  Max     0.019735989 RMS     0.007608140
 Force constants in Cartesian coordinates: 
                1             2             3             4             5 
      1  0.727780D+00
      2  0.121174D-01  0.234599D+00
      3 -0.340411D-02  0.706888D-02  0.731848D+00
      4 -0.116762D+00 -0.615989D-02  0.263068D-02  0.780910D-01
      5 -0.616724D-02 -0.716924D-01  0.172231D-01  0.591877D-02  0.484931D-01
      6  0.000000D+00  0.000000D+00 -0.362127D+00  0.000000D+00  0.000000D+00
      7 -0.299742D+00 -0.309358D-02  0.105523D+00  0.192789D-01 -0.206626D-04
      8  0.118225D-01 -0.716516D-01 -0.139749D-01 -0.413602D-04  0.108503D-01
      9  0.108175D+00 -0.536427D-02 -0.179150D+00  0.334296D-01 -0.358290D-04
     10 -0.300436D+00 -0.723200D-03 -0.106651D+00  0.193124D-01  0.422880D-04
     11 -0.156142D-01 -0.680140D-01 -0.906219D-02  0.561112D-04  0.108411D-01
     12 -0.106672D+00 -0.457637D-03 -0.177505D+00 -0.334222D-01 -0.136185D-03
     13 -0.108404D-01 -0.214076D-02  0.190093D-02  0.798872D-04  0.226844D-03
     14 -0.215841D-02 -0.232414D-01 -0.125493D-02  0.226366D-03  0.150791D-02
     15  0.190056D-02 -0.124698D-02 -0.130660D-01 -0.263804D-02 -0.170511D-01
                6             7             8             9            10 
      6  0.362127D+00
      7  0.000000D+00  0.291240D+00
      8  0.000000D+00  0.297475D-02  0.484816D-01
      9  0.000000D+00 -0.122917D+00  0.515822D-02  0.148989D+00
     10  0.000000D+00 -0.964814D-02 -0.967972D-04 -0.167299D-01  0.290804D+00
     11  0.000000D+00  0.279459D-04  0.108411D-01  0.484582D-04  0.768501D-03
     12  0.000000D+00  0.166969D-01  0.104515D-03  0.289524D-01  0.123427D+00
     13  0.000000D+00 -0.112917D-02 -0.146591D-01 -0.195798D-02 -0.323903D-04
     14  0.000000D+00  0.111542D-03  0.147860D-02  0.193413D-03  0.920761D-05
     15  0.000000D+00  0.697092D-03  0.871217D-02  0.120876D-02 -0.463969D-04
               11            12            13            14            15 
     11  0.493863D-01
     12  0.487491D-03  0.148522D+00
     13  0.147617D-01 -0.297314D-04  0.119221D-01
     14 -0.305441D-02  0.181570D-05  0.181129D-02  0.233093D-01
     15  0.852624D-02  0.307450D-04  0.867825D-04  0.105970D-02  0.118265D-01
 FCInt: Cartesian first derivatives: 
                 1             2             3             4             5 
      1   0.000000D+00  0.000000D+00  0.000000D+00  0.000000D+00  0.000000D+00
      2   0.000000D+00  0.000000D+00  0.000000D+00  0.000000D+00  0.000000D+00
      3   0.000000D+00  0.000000D+00  0.000000D+00  0.000000D+00  0.000000D+00
 FCInt: Cartesian force constants: 
                1             2             3             4             5 
      1  0.727780D+00
      2  0.121174D-01  0.234599D+00
      3 -0.340411D-02  0.706888D-02  0.731848D+00
      4 -0.116762D+00 -0.615989D-02  0.263068D-02  0.780910D-01
      5 -0.616724D-02 -0.716924D-01  0.172231D-01  0.591877D-02  0.484931D-01
      6  0.000000D+00  0.000000D+00 -0.362127D+00  0.000000D+00  0.000000D+00
      7 -0.299742D+00 -0.309358D-02  0.105523D+00  0.192789D-01 -0.206626D-04
      8  0.118225D-01 -0.716516D-01 -0.139749D-01 -0.413602D-04  0.108503D-01
      9  0.108175D+00 -0.536427D-02 -0.179150D+00  0.334296D-01 -0.358290D-04
     10 -0.300436D+00 -0.723200D-03 -0.106651D+00  0.193124D-01  0.422880D-04
     11 -0.156142D-01 -0.680140D-01 -0.906219D-02  0.561112D-04  0.108411D-01
     12 -0.106672D+00 -0.457637D-03 -0.177505D+00 -0.334222D-01 -0.136185D-03
     13 -0.108404D-01 -0.214076D-02  0.190093D-02  0.798872D-04  0.226844D-03
     14 -0.215841D-02 -0.232414D-01 -0.125493D-02  0.226366D-03  0.150791D-02
     15  0.190056D-02 -0.124698D-02 -0.130660D-01 -0.263804D-02 -0.170511D-01
                6             7             8             9            10 
      6  0.362127D+00
      7  0.000000D+00  0.291240D+00
      8  0.000000D+00  0.297475D-02  0.484816D-01
      9  0.000000D+00 -0.122917D+00  0.515822D-02  0.148989D+00
     10  0.000000D+00 -0.964814D-02 -0.967972D-04 -0.167299D-01  0.290804D+00
     11  0.000000D+00  0.279459D-04  0.108411D-01  0.484582D-04  0.768501D-03
     12  0.000000D+00  0.166969D-01  0.104515D-03  0.289524D-01  0.123427D+00
     13  0.000000D+00 -0.112917D-02 -0.146591D-01 -0.195798D-02 -0.323903D-04
     14  0.000000D+00  0.111542D-03  0.147860D-02  0.193413D-03  0.920761D-05
     15  0.000000D+00  0.697092D-03  0.871217D-02  0.120876D-02 -0.463969D-04
               11            12            13            14            15 
     11  0.493863D-01
     12  0.487491D-03  0.148522D+00
     13  0.147617D-01 -0.297314D-04  0.119221D-01
     14 -0.305441D-02  0.181570D-05  0.181129D-02  0.233093D-01
     15  0.852624D-02  0.307450D-04  0.867825D-04  0.105970D-02  0.118265D-01
 Internal force constants: 
                1             2             3             4             5 
      1  0.362127D+00
      2  0.000000D+00  0.362127D+00
      3  0.000000D+00  0.000000D+00  0.362127D+00
      4  0.000000D+00  0.000000D+00  0.000000D+00  0.236853D-01
      5  0.000000D+00  0.000000D+00  0.000000D+00  0.000000D+00  0.324235D+00
      6  0.000000D+00  0.000000D+00  0.000000D+00  0.000000D+00  0.160246D+00
      7  0.000000D+00  0.000000D+00  0.000000D+00  0.000000D+00  0.129457D-01
      8  0.000000D+00  0.000000D+00  0.000000D+00  0.000000D+00 -0.434179D-03
      9  0.000000D+00  0.000000D+00  0.000000D+00  0.000000D+00 -0.208731D-01
                6             7             8             9 
      6  0.320495D+00
      7  0.329437D-03  0.241313D+00
      8 -0.303138D-03 -0.684922D-01  0.153696D+00
      9 -0.315285D-03 -0.156721D-02 -0.119978D+00  0.237546D+00
 Frcnst in PutFF: 
                1             2             3             4             5 
      1  0.237546D+00
      2 -0.156721D-02  0.241313D+00
      3  0.000000D+00  0.000000D+00  0.362127D+00
      4 -0.208731D-01  0.129457D-01  0.000000D+00  0.324235D+00
      5 -0.315285D-03  0.329437D-03  0.000000D+00  0.160246D+00  0.320495D+00
      6 -0.119978D+00 -0.684922D-01  0.000000D+00 -0.434179D-03 -0.303138D-03
      7  0.000000D+00  0.000000D+00  0.000000D+00  0.000000D+00  0.000000D+00
      8  0.000000D+00  0.000000D+00  0.000000D+00  0.000000D+00  0.000000D+00
      9  0.000000D+00  0.000000D+00  0.000000D+00  0.000000D+00  0.000000D+00
                6             7             8             9 
      6  0.153696D+00
      7  0.000000D+00  0.362127D+00
      8  0.000000D+00  0.000000D+00  0.362127D+00
      9  0.000000D+00  0.000000D+00  0.000000D+00  0.236853D-01
 Force constants in internal coordinates: 
                1             2             3             4             5 
      1  0.362127D+00
      2  0.000000D+00  0.362127D+00
      3  0.000000D+00  0.000000D+00  0.362127D+00
      4  0.000000D+00  0.000000D+00  0.000000D+00  0.236853D-01
      5  0.000000D+00  0.000000D+00  0.000000D+00  0.000000D+00  0.324235D+00
      6  0.000000D+00  0.000000D+00  0.000000D+00  0.000000D+00  0.160246D+00
      7  0.000000D+00  0.000000D+00  0.000000D+00  0.000000D+00  0.129457D-01
      8  0.000000D+00  0.000000D+00  0.000000D+00  0.000000D+00 -0.434179D-03
      9  0.000000D+00  0.000000D+00  0.000000D+00  0.000000D+00 -0.208731D-01
                6             7             8             9 
      6  0.320495D+00
      7  0.329437D-03  0.241313D+00
      8 -0.303138D-03 -0.684922D-01  0.153696D+00
      9 -0.315285D-03 -0.156721D-02 -0.119978D+00  0.237546D+00
 Final forces over variables, Energy=-4.03538414D+01:
 -6.04324065D-03-3.47739561D-03-2.05962384D-04 4.78398159D-04
  1.29859676D-05 9.08619002D-03-2.46562266D-05-3.09293627D-05
 -1.97359886D-02

 GradGradGradGradGradGradGradGradGradGradGradGradGradGradGradGradGradGrad
 Berny optimization.
 Search for a local minimum.
 Step number   1 out of a maximum of   50
 All quantities printed in internal units (Hartrees-Bohrs-Radians)
 Second derivative matrix not updated -- first step.
 The second derivative matrix:
                         BABS1     AABS1      R3        A2        A3
           BABS1        0.23755
           AABS1       -0.00157   0.24131
           R3           0.00000   0.00000   0.36213
           A2          -0.02087   0.01295  -0.00000   0.32424
           A3          -0.00032   0.00033   0.00000   0.16025   0.32050
           D3          -0.11998  -0.06849  -0.00000  -0.00043  -0.00030
           R2           0.00000  -0.00000  -0.00000   0.00000   0.00000
           R1           0.00000   0.00000   0.00000   0.00000   0.00000
           RTS         -0.00000   0.00000  -0.00000   0.00000   0.00000
                          D3        R2        R1        RTS
           D3           0.15370
           R2          -0.00000   0.36213
           R1           0.00000   0.00000   0.36213
           RTS          0.00000   0.00000   0.00000   0.02369
 ITU=  0
     Eigenvalues ---    0.23698   0.241881000.000001000.000001000.00000
     Eigenvalues --- 1000.000001000.000001000.000001000.00000
 RFO step:  Lambda=-2.04832706D-04 EMin= 2.36979618D-01
 Linear search not attempted -- first point.
 Variable       Old X    -DE/DX   Delta X   Delta X   Delta X     New X
                                 (Linear)    (Quad)   (Total)
  BABS1       1.72423  -0.00604   0.00000  -0.02551  -0.02551   1.69871
  AABS1       1.65999  -0.00348   0.00000  -0.01456  -0.01456   1.64542
    R3        2.03750  -0.00021   0.00000   0.00000   0.00000   2.03750
    A2        2.09391   0.00048   0.00000   0.00000   0.00000   2.09391
    A3        2.09476   0.00001   0.00000   0.00000   0.00000   2.09476
    D3        3.13823   0.00909   0.00000   0.00000   0.00000   3.13823
    R2        2.03750  -0.00002   0.00000   0.00000   0.00000   2.03750
    R1        2.03750  -0.00003   0.00000   0.00000   0.00000   2.03750
   RTS        4.53534  -0.01974   0.00000   0.00000   0.00000   4.53534
         Item               Value     Threshold  Converged?
 Maximum Force            0.006043     0.000450     NO 
 RMS     Force            0.004930     0.000300     NO 
 Maximum Displacement     0.025514     0.001800     NO 
 RMS     Displacement     0.009793     0.001200     NO 
 Predicted change in Energy=-1.025048D-04
 GradGradGradGradGradGradGradGradGradGradGradGradGradGradGradGradGradGrad

 ---------------------------------------------------------------------------------------------------
                            Z-MATRIX (ANGSTROMS AND DEGREES)
   CD    Cent   Atom    N1       Length/X        N2       Alpha/Y        N3        Beta/Z          J
 ---------------------------------------------------------------------------------------------------
      1      1  C 
      2      2  H        1   1.078200(     1)
      3      3  H        1   1.078200(     2)      2  119.972(     5)
      4      4  H        1   1.078200(     3)      2  120.021(     6)      3  179.808(     8)      0
      5      5  H        1   2.400000(     4)      2   94.276(     7)      3   97.329(     9)      0
 ---------------------------------------------------------------------------------------------------
                         Z-Matrix orientation:                         
 ---------------------------------------------------------------------
 Center     Atomic      Atomic             Coordinates (Angstroms)
 Number     Number       Type             X           Y           Z
 ---------------------------------------------------------------------
      1          6           0        0.000000    0.000000    0.000000
      2          1           0        0.000000    0.000000    1.078200
      3          1           0        0.934011    0.000000   -0.538645
      4          1           0       -0.933548   -0.003135   -0.539437
      5          1           0       -0.305313   -2.373766   -0.178941
 ---------------------------------------------------------------------
                    Distance matrix (angstroms):
                    1          2          3          4          5
     1  C    0.000000
     2  H    1.078200   0.000000
     3  H    1.078200   1.867235   0.000000
     4  H    1.078200   1.867692   1.867562   0.000000
     5  H    2.400000   2.703402   2.701865   2.478816   0.000000
 Symmetry turned off by external request.
 Stoichiometry    CH4
 Framework group  C1[X(CH4)]
 Deg. of freedom     9
 Full point group                 C1      NOp   1
 Rotational constants (GHZ):    146.1584202     70.2196114     69.6765298
 Standard basis: Aug-CC-pVTZ (5D, 7F)
   138 basis functions,   180 primitive gaussians,   155 cartesian basis functions
     5 alpha electrons        5 beta electrons
       nuclear repulsion energy        11.6124536470 Hartrees.
 NAtoms=    5 NActive=    5 NUniq=    5 SFac= 1.00D+00 NAtFMM=   60 NAOKFM=F Big=F
 Integral buffers will be    131072 words long.
 Raffenetti 2 integral format.
 Two-electron integral symmetry is turned off.
 Nuclear repulsion after empirical dispersion term =       11.6116916294 Hartrees.
 One-electron integrals computed using PRISM.
 NBasis=   138 RedAO= T EigKep=  9.44D-05  NBF=   138
 NBsUse=   138 1.00D-06 EigRej= -1.00D+00 NBFU=   138
 ExpMin= 2.53D-02 ExpMax= 8.24D+03 ExpMxC= 2.81D+02 IAcc=3 IRadAn=         5 AccDes= 0.00D+00
 Harris functional with IExCor= 4639 and IRadAn=       5 diagonalized for initial guess.
 HarFok:  IExCor= 4639 AccDes= 0.00D+00 IRadAn=         5 IDoV= 1 UseB2=F ITyADJ=14
 ICtDFT=  3500011 ScaDFX=  1.000000  1.000000  1.000000  1.000000
 FoFCou: FMM=F IPFlag=           0 FMFlag=      100000 FMFlg1=           0
         NFxFlg=           0 DoJE=T BraDBF=F KetDBF=T FulRan=T
         wScrn=  0.000000 ICntrl=     500 IOpCl=  0 I1Cent=   200000004 NGrid=           0
         NMat0=    1 NMatS0=      1 NMatT0=    0 NMatD0=    1 NMtDS0=    0 NMtDT0=    0
 Symmetry not used in FoFCou.
 Mixing orbitals, IMix= 1 IMixAn=  0 NRI=1 NE=    5 Coef=  7.07106781D-01  7.07106781D-01
 Mixing orbitals, IMix= 1 IMixAn=  0 NRI=1 NE=    5 Coef= -7.07106781D-01  7.07106781D-01
 Initial guess <Sx>= 0.0000 <Sy>= 0.0000 <Sz>= 0.0000 <S**2>= 1.0000 S= 0.6180
 Keep R1 and R2 ints in memory in canonical form, NReq=186089897.
 Requested convergence on RMS density matrix=1.00D-08 within 128 cycles.
 Requested convergence on MAX density matrix=1.00D-06.
 Requested convergence on             energy=1.00D-06.
 No special actions if energy rises.
 SCF Done:  E(UwB97XD) =  -40.3540295392     A.U. after   14 cycles
            NFock= 14  Conv=0.21D-08     -V/T= 2.0093
 <Sx>= 0.0000 <Sy>= 0.0000 <Sz>= 0.0000 <S**2>= 0.6816 S= 0.4652
 <L.S>=  0.00000000000    
 Annihilation of the first spin contaminant:
 S**2 before annihilation     0.6816,   after     0.0117
 DipInt: DoE/N= T T RetVal/Mat= T F Init=T NMatP=  1 IDeriv=0 Min/MaxMlt=  1  1
 Entering OneElI...
 Multipole integrals L=1 to 1 MinM= 0 MaxM= 0.
 Requested accuracy = 0.1000D-12
 PrsmSu:  NPrtUS=   1 ThrOK=F IAlg=1 NPAlg=1 LenDen=           0.
 Prism:   IPart=     0 DynPar=F LinDyn=F Incr=          12.
 PRISM was handed   419323276 working-precision words and  1275 shell-pairs
 IPart=  0 NShTot=        1275 NBatch=          38 AvBLen=        33.6
 PrSmSu:  NxtVal=             13.
 Entering OneElI...
 Calculate overlap and kinetic energy integrals
    NBasis = 155  MinDer = 1  MaxDer = 1
 Requested accuracy = 0.1000D-12
 PrsmSu:  NPrtUS=  32 ThrOK=T IAlg=1 NPAlg=1 LenDen=           0.
 Prism:   IPart=     0 DynPar=F LinDyn=F Incr=           1.
 PRISM was handed    13082618 working-precision words and  1275 shell-pairs
 PRISM was handed    13082618 working-precision words and  1275 shell-pairs
 PRISM was handed    13082618 working-precision words and  1275 shell-pairs
 PRISM was handed    13082618 working-precision words and  1275 shell-pairs
 PRISM was handed    13082618 working-precision words and  1275 shell-pairs
 PRISM was handed    13082618 working-precision words and  1275 shell-pairs
 PRISM was handed    13082618 working-precision words and  1275 shell-pairs
 PRISM was handed    13082618 working-precision words and  1275 shell-pairs
 PRISM was handed    13082618 working-precision words and  1275 shell-pairs
 PRISM was handed    13082618 working-precision words and  1275 shell-pairs
 PRISM was handed    13082618 working-precision words and  1275 shell-pairs
 PRISM was handed    13082618 working-precision words and  1275 shell-pairs
 PRISM was handed    13082618 working-precision words and  1275 shell-pairs
[...]
 I=    5 X=   2.566794884665D-05 Y=  -2.065414625436D-02 Z=  -4.859182728932D-06
 FrcOut:
 IF    =    36 IFX   =    51 IFXYZ =    66
 IFFX  =    81 IFFFX =    81 IFLen =    15
 IFFLen=     0 IFFFLn=     0 IEDerv=    81
 LEDerv=   773 IFroze=  1043 ICStrt= 39471
 -------------------------------------------------------------------
 Center     Atomic                   Forces (Hartrees/Bohr)
 Number     Number              X              Y              Z
 -------------------------------------------------------------------
      1        6           0.000088460   -0.029362338    0.000035707
      2        1          -0.000044647    0.002890777   -0.000094604
      3        1          -0.000097580    0.002904441    0.000006434
      4        1           0.000079434    0.002912973    0.000047605
      5        1          -0.000025668    0.020654146    0.000004859
 -------------------------------------------------------------------
 Cartesian Forces:  Max     0.029362338 RMS     0.009359691
 From PutF, contents of force:
   1   -0.1258191188D-04
   2   -0.3202670664D-04
   3   -0.1010640082D-03
   4    0.8797010045D-04
   5    0.6962945540D-05
   6    0.5138454148D-02
   7   -0.8774443433D-04
   8   -0.9460416029D-04
   9   -0.2065416138D-01
 -----------------------------------------------------------------------------------------------
                       Internal Coordinate Forces (Hartree/Bohr or radian)
  Cent   Atom   N1       Length/X         N2         Alpha/Y        N3         Beta/Z          J
 -----------------------------------------------------------------------------------------------
      1  C 
      2  H        1  -0.000095(     1)
      3  H        1  -0.000088(     2)      2   0.000088(     5)
      4  H        1  -0.000101(     3)      2   0.000007(     6)      3   0.005138(     8)     0
      5  H        1  -0.020654(     4)      2  -0.000032(     7)      3  -0.000013(     9)     0
 -----------------------------------------------------------------------------------------------
 Internal  Forces:  Max     0.020654161 RMS     0.007094865
 Final forces over variables, Energy=-4.03544667D+01:
 -1.25819119D-05-3.20267066D-05-1.01064008D-04 8.79701005D-05
  6.96294554D-06 5.13845415D-03-8.77444343D-05-9.46041603D-05
 -2.06541614D-02

 GradGradGradGradGradGradGradGradGradGradGradGradGradGradGradGradGradGrad
 Berny optimization.
 Search for a local minimum.
 Step number   4 out of a maximum of   50
 All quantities printed in internal units (Hartrees-Bohrs-Radians)
 Update second derivatives using D2CorN and points    3    4
 DE= -1.62D-04 DEPred=-1.61D-04 R= 1.00D+00
 TightC=F SS=  1.41D+00  RLast= 9.06D-02 DXNew= 5.0454D-01 2.7175D-01
 Trust test= 1.00D+00 RLast= 9.06D-02 DXMaxT set to 3.00D-01
 The second derivative matrix:
                         BABS1     AABS1      R3        A2        A3
           BABS1        0.08945
           AABS1       -0.08779   0.19112
           R3           0.00045   0.00026   0.36213
           A2          -0.01372   0.01705  -0.00000   0.32424
           A3          -0.00026   0.00036   0.00000   0.16025   0.32050
           D3          -0.03190  -0.01799  -0.00000  -0.00043  -0.00030
           R2          -0.00027  -0.00015  -0.00000   0.00000   0.00000
           R1          -0.00027  -0.00015   0.00000   0.00000   0.00000
           RTS         -0.00367  -0.00209  -0.00000   0.00000   0.00000
                          D3        R2        R1        RTS
           D3           0.15370
           R2          -0.00000   0.36213
           R1           0.00000   0.00000   0.36213
           RTS          0.00000   0.00000   0.00000   0.02369
 ITU=  1  1  1  0
     Eigenvalues ---    0.03885   0.241731000.000001000.000001000.00000
     Eigenvalues --- 1000.000001000.000001000.000001000.00000
 RFO step:  Lambda= 0.00000000D+00 EMin= 3.88450938D-02
 Quartic linear search produced a step of  0.00769.
 Variable       Old X    -DE/DX   Delta X   Delta X   Delta X     New X
                                 (Linear)    (Quad)   (Total)
  BABS1       1.56942  -0.00001  -0.00060   0.00005  -0.00056   1.56886
  AABS1       1.57069  -0.00003  -0.00035  -0.00008  -0.00043   1.57026
    R3        2.03750  -0.00010   0.00000   0.00000   0.00000   2.03750
    A2        2.09391   0.00009   0.00000   0.00000   0.00000   2.09391
    A3        2.09476   0.00001   0.00000   0.00000   0.00000   2.09476
    D3        3.13823   0.00514   0.00000   0.00000   0.00000   3.13823
    R2        2.03750  -0.00009   0.00000   0.00000   0.00000   2.03750
    R1        2.03750  -0.00009   0.00000   0.00000   0.00000   2.03750
   RTS        4.53534  -0.02065   0.00000   0.00000   0.00000   4.53534
         Item               Value     Threshold  Converged?
 Maximum Force            0.000032     0.000450     YES
 RMS     Force            0.000024     0.000300     YES
 Maximum Displacement     0.000558     0.001800     YES
 RMS     Displacement     0.000234     0.001200     YES
 Predicted change in Energy=-1.026364D-08
 Optimization completed.
    -- Stationary point found.
                       ----------------------------
                       !   Optimized Parameters   !
                       ! (Angstroms and Degrees)  !
 ----------------------                            ----------------------
 !      Name          Value   Derivative information (Atomic Units)     !
 ------------------------------------------------------------------------
 !      BABS1       89.9211   -DE/DX =    0.0                           !
 !      AABS1       89.9939   -DE/DX =    0.0                           !
 !       R3          1.0782   -DE/DX =   -0.0001                        !
 !       A2        119.9721   -DE/DX =    0.0001                        !
 !       A3        120.0207   -DE/DX =    0.0                           !
 !       D3        179.8076   -DE/DX =    0.0051                        !
 !       R2          1.0782   -DE/DX =   -0.0001                        !
 !       R1          1.0782   -DE/DX =   -0.0001                        !
 !       RTS         2.4      -DE/DX =   -0.0207                        !
 ------------------------------------------------------------------------
 GradGradGradGradGradGradGradGradGradGradGradGradGradGradGradGradGradGrad

 ---------------------------------------------------------------------------------------------------
                            Z-MATRIX (ANGSTROMS AND DEGREES)
   CD    Cent   Atom    N1       Length/X        N2       Alpha/Y        N3        Beta/Z          J
 ---------------------------------------------------------------------------------------------------
      1      1  C 
      2      2  H        1   1.078200(     1)
      3      3  H        1   1.078200(     2)      2  119.972(     5)
      4      4  H        1   1.078200(     3)      2  120.021(     6)      3  179.808(     8)      0
      5      5  H        1   2.400000(     4)      2   89.994(     7)      3   89.921(     9)      0
 ---------------------------------------------------------------------------------------------------
                         Z-Matrix orientation:                         
 ---------------------------------------------------------------------
 Center     Atomic      Atomic             Coordinates (Angstroms)
 Number     Number       Type             X           Y           Z
 ---------------------------------------------------------------------
      1          6           0        0.000000    0.000000    0.000000
      2          1           0        0.000000    0.000000    1.078200
      3          1           0        0.934011    0.000000   -0.538645
      4          1           0       -0.933548   -0.003135   -0.539437
      5          1           0        0.003305   -2.399998    0.000256
 ---------------------------------------------------------------------
                    Distance matrix (angstroms):
                    1          2          3          4          5
     1  C    0.000000
     2  H    1.078200   0.000000
     3  H    1.078200   1.867235   0.000000
     4  H    1.078200   1.867692   1.867562   0.000000
     5  H    2.400000   2.630962   2.629946   2.629432   0.000000
 Symmetry turned off by external request.
 Stoichiometry    CH4
 Framework group  C1[X(CH4)]
 Deg. of freedom     9
 Full point group                 C1      NOp   1
 Rotational constants (GHZ):    143.7847496     70.2297177     70.2197303

 **********************************************************************

            Population analysis using the SCF density.

 **********************************************************************

 Alpha  occ. eigenvalues --  -10.32032  -0.79852  -0.52181  -0.52173  -0.32883
 Alpha virt. eigenvalues --   -0.02568   0.03739   0.05072   0.05072   0.09696
 Alpha virt. eigenvalues --    0.10969   0.12613   0.12615   0.13717   0.19355
 Alpha virt. eigenvalues --    0.19358   0.20444   0.20447   0.27037   0.29771
 Alpha virt. eigenvalues --    0.31444   0.31446   0.32499   0.32502   0.33227
 Alpha virt. eigenvalues --    0.33925   0.37433   0.38617   0.38619   0.39110
 Alpha virt. eigenvalues --    0.40117   0.40120   0.44449   0.44451   0.58937
 Alpha virt. eigenvalues --    0.59128   0.66716   0.66732   0.68657   0.73039
 Alpha virt. eigenvalues --    0.73046   0.80069   0.80384   0.80387   0.80892
 Alpha virt. eigenvalues --    0.82995   0.82998   0.87254   0.87266   0.88093
 Alpha virt. eigenvalues --    0.94060   0.94101   0.94108   0.99207   0.99216
 Alpha virt. eigenvalues --    1.02981   1.02987   1.03064   1.05103   1.07869
 Alpha virt. eigenvalues --    1.07878   1.12518   1.12522   1.15175   1.23762
 Alpha virt. eigenvalues --    1.23790   1.28260   1.39099   1.39120   1.46408
 Alpha virt. eigenvalues --    1.49378   1.49379   1.49998   1.56129   1.57467
 Alpha virt. eigenvalues --    1.57481   1.59328   1.67915   1.78982   1.78993
 Alpha virt. eigenvalues --    1.95307   1.95326   1.95406   2.05702   2.05715
 Alpha virt. eigenvalues --    2.08378   2.73053   2.83177   2.83193   2.87724
 Alpha virt. eigenvalues --    2.98885   3.02423   3.02438   3.33605   3.33615
 Alpha virt. eigenvalues --    3.38076   3.38078   3.41856   3.42047   3.43327
 Alpha virt. eigenvalues --    3.43337   3.50287   3.68100   3.69466   3.72256
 Alpha virt. eigenvalues --    3.72261   3.80687   3.80691   3.86622   3.86636
 Alpha virt. eigenvalues --    4.01151   4.01168   4.05464   4.06450   4.06463
 Alpha virt. eigenvalues --    4.13177   4.16192   4.16224   4.39897   4.51079
 Alpha virt. eigenvalues --    4.58105   4.58107   4.60580   4.60591   4.78049
 Alpha virt. eigenvalues --    4.81140   5.03953   5.04008   5.10021   5.10044
 Alpha virt. eigenvalues --    5.17655   5.17667   5.31127   6.07051   6.22094
 Alpha virt. eigenvalues --    6.22131   6.39239  15.96002
  Beta  occ. eigenvalues --  -10.31143  -0.76136  -0.51205  -0.51197  -0.37535
  Beta virt. eigenvalues --   -0.00267   0.04224   0.05148   0.05148   0.06622
  Beta virt. eigenvalues --    0.12899   0.12901   0.12989   0.14390   0.19581
  Beta virt. eigenvalues --    0.19583   0.20871   0.20873   0.27627   0.30196
  Beta virt. eigenvalues --    0.31841   0.31842   0.32651   0.32653   0.33923
  Beta virt. eigenvalues --    0.33936   0.37907   0.38410   0.38873   0.38875
  Beta virt. eigenvalues --    0.40470   0.40473   0.44723   0.44724   0.55411
  Beta virt. eigenvalues --    0.60240   0.66967   0.66982   0.70635   0.73488
  Beta virt. eigenvalues --    0.73495   0.80071   0.81342   0.81348   0.81352
  Beta virt. eigenvalues --    0.83800   0.83804   0.87185   0.87197   0.88848
  Beta virt. eigenvalues --    0.93396   0.93667   0.93673   0.97828   0.97838
  Beta virt. eigenvalues --    1.02978   1.03140   1.03148   1.05572   1.07920
  Beta virt. eigenvalues --    1.07928   1.12643   1.12650   1.14953   1.24058
  Beta virt. eigenvalues --    1.24086   1.27737   1.39449   1.39471   1.46092
  Beta virt. eigenvalues --    1.49837   1.49838   1.50077   1.57332   1.57999
  Beta virt. eigenvalues --    1.58012   1.60082   1.68574   1.79473   1.79485
  Beta virt. eigenvalues --    1.95204   1.96468   1.96487   2.05969   2.05982
  Beta virt. eigenvalues --    2.09887   2.60279   2.84385   2.84400   2.91040
  Beta virt. eigenvalues --    3.00245   3.04664   3.04677   3.35848   3.35855
  Beta virt. eigenvalues --    3.40603   3.40605   3.42170   3.44695   3.44704
  Beta virt. eigenvalues --    3.44966   3.51609   3.69372   3.69704   3.71156
  Beta virt. eigenvalues --    3.71161   3.73421   3.73424   3.79954   3.79966
  Beta virt. eigenvalues --    3.89691   3.89699   3.98506   4.04375   4.04384
  Beta virt. eigenvalues --    4.13035   4.16871   4.16903   4.32695   4.48426
  Beta virt. eigenvalues --    4.58292   4.58294   4.60639   4.60648   4.77642
  Beta virt. eigenvalues --    4.82782   5.04288   5.04346   5.12472   5.12495
  Beta virt. eigenvalues --    5.18175   5.18185   5.32156   6.08023   6.22542
  Beta virt. eigenvalues --    6.22580   6.39962  15.98153
          Condensed to atoms (all electrons):
               1          2          3          4          5
     1  C    5.944290   0.333540   0.333481   0.333473   0.112471
     2  H    0.333540   0.278673   0.010448   0.010436  -0.004150
     3  H    0.333481   0.010448   0.278660   0.010447  -0.004162
     4  H    0.333473   0.010436   0.010447   0.278672  -0.004160
     5  H    0.112471  -0.004150  -0.004162  -0.004160   0.956057
          Atomic-Atomic Spin Densities.
               1          2          3          4          5
     1  C    0.792002   0.013374   0.013357   0.013322  -0.002211
     2  H    0.013374  -0.025702   0.000157   0.000159   0.009040
     3  H    0.013357   0.000157  -0.025709   0.000154   0.009059
     4  H    0.013322   0.000159   0.000154  -0.025721   0.009068
     5  H   -0.002211   0.009040   0.009059   0.009068  -0.845827
 Mulliken charges and spin densities:
               1          2
     1  C   -1.057254   0.829844
     2  H    0.371053  -0.002973
     3  H    0.371125  -0.002982
     4  H    0.371133  -0.003018
     5  H   -0.056057  -0.820871
 Sum of Mulliken charges =  -0.00000   0.00000
 Mulliken charges and spin densities with hydrogens summed into heavy atoms:
               1          2
     1  C   -0.000000   0.000000
 Electronic spatial extent (au):  <R**2>=             54.6174
 Charge=             -0.0000 electrons
 Dipole moment (field-independent basis, Debye):
    X=             -0.0011    Y=              0.8419    Z=             -0.0002  Tot=              0.8419
 Quadrupole moment (field-independent basis, Debye-Ang):
   XX=             -8.6239   YY=            -11.7962   ZZ=             -8.6244
   XY=              0.0051   XZ=              0.0009   YZ=              0.0023
 Traceless Quadrupole moment (field-independent basis, Debye-Ang):
   XX=              1.0576   YY=             -2.1147   ZZ=              1.0571
   XY=              0.0051   XZ=              0.0009   YZ=              0.0023
 Octapole moment (field-independent basis, Debye-Ang**2):
  XXX=             -0.0170  YYY=             14.2714  ZZZ=              0.9999  XYY=             -0.0091
  XXY=              4.0613  XXZ=             -1.0025  XZZ=             -0.0068  YZZ=              4.0633
  YYZ=             -0.0013  XYZ=             -0.0017
 Hexadecapole moment (field-independent basis, Debye-Ang**3):
 XXXX=            -16.8273 YYYY=            -71.9704 ZZZZ=            -16.8273 XXXY=              0.0388
 XXXZ=             -0.0004 YYYX=              0.0370 YYYZ=              0.0015 ZZZX=              0.0006
 ZZZY=             -0.0103 XXYY=            -14.9487 XXZZ=             -5.6093 YYZZ=            -14.9486
 XXYZ=              0.0151 YYXZ=             -0.0002 ZZXY=              0.0130
 N-N= 1.161020725582D+01 E-N=-1.159402980899D+02  KE= 3.998029107138D+01
                          Isotropic Fermi Contact Couplings
        Atom                 a.u.       MegaHertz       Gauss      10(-4) cm-1
     1  C(13)             -0.00229      -1.28935      -0.46007      -0.43008
     2  H(1)              -0.01243     -27.76919      -9.90874      -9.26281
     3  H(1)              -0.01243     -27.78381      -9.91395      -9.26768
     4  H(1)              -0.01244     -27.79546      -9.91811      -9.27157
     5  H(1)              -0.24560    -548.89311    -195.85870    -183.09103
 --------------------------------------------------------
       Center         ----  Spin Dipole Couplings  ----
                      3XX-RR        3YY-RR        3ZZ-RR
 --------------------------------------------------------
     1   Atom       -0.457489      0.915012     -0.457523
     2   Atom       -0.057283     -0.006033      0.063316
     3   Atom        0.033226     -0.006048     -0.027178
     4   Atom        0.033100     -0.006014     -0.027086
     5   Atom       -0.013618      0.027236     -0.013618
 --------------------------------------------------------
                        XY            XZ            YZ
 --------------------------------------------------------
     1   Atom       -0.002319     -0.000007     -0.001378
     2   Atom       -0.000090      0.000010     -0.007124
     3   Atom       -0.006220     -0.052193      0.003472
     4   Atom        0.006345      0.052231      0.003657
     5   Atom       -0.000054     -0.000000      0.000003
 --------------------------------------------------------


 ---------------------------------------------------------------------------------
              Anisotropic Spin Dipole Couplings in Principal Axis System
 ---------------------------------------------------------------------------------

       Atom             a.u.   MegaHertz   Gauss  10(-4) cm-1        Axes

              Baa    -0.4575   -61.396   -21.908   -20.479  0.2544  0.0014  0.9671
     1 C(13)  Bbb    -0.4575   -61.391   -21.906   -20.478  0.9671  0.0014 -0.2544
              Bcc     0.9150   122.787    43.813    40.957 -0.0017  1.0000 -0.0010
 
              Baa    -0.0573   -30.564   -10.906   -10.195  1.0000  0.0018  0.0000
     2 H(1)   Bbb    -0.0068    -3.605    -1.286    -1.202 -0.0018  0.9949  0.1011
              Bcc     0.0640    34.169    12.192    11.397  0.0002 -0.1011  0.9949
 
              Baa    -0.0573   -30.561   -10.905   -10.194  0.4997  0.0020  0.8662
     3 H(1)   Bbb    -0.0068    -3.613    -1.289    -1.205  0.0866  0.9949 -0.0522
              Bcc     0.0640    34.174    12.194    11.399  0.8619 -0.1011 -0.4969
 
              Baa    -0.0573   -30.558   -10.904   -10.193 -0.5004  0.0002  0.8658
     4 H(1)   Bbb    -0.0068    -3.617    -1.291    -1.207 -0.0899  0.9946 -0.0522
              Bcc     0.0641    34.176    12.195    11.400  0.8611  0.1040  0.4977
 
              Baa    -0.0136    -7.266    -2.593    -2.424  0.9174  0.0012  0.3980
     5 H(1)   Bbb    -0.0136    -7.266    -2.593    -2.424 -0.3980 -0.0006  0.9174
              Bcc     0.0272    14.532     5.185     4.847 -0.0013  1.0000  0.0001
 

 ---------------------------------------------------------------------------------


 Test job not archived.
 1\1\GINC-NODE-6-7\POpt\UwB97XD\Aug-CC-pVTZ\C1H4\CAVALLOTTI\03-Jun-2023
 \1\\# uwb97xd/aug-cc-pvtz opt=(noeig,intern,maxcyc=50) # int=ultrafine
  nosym iop(7/33=1) guess=(mix,always)\\geom 0\\0,1\C\H,1,R1\H,1,R2,2,A
 2\H,1,R3,2,A3,3,D3,0\H,1,RTS,2,AABS1,3,BABS1,0\\BABS1=89.92109992\AABS
 1=89.99389042\R3=1.0782\A2=119.9721\A3=120.0207\D3=179.8076\R2=1.0782\
 R1=1.0782\RTS=2.4\\Version=EM64L-G09RevD.01\HF=-40.3544667\S2=0.675538
 \S2-1=0.\S2A=0.011432\RMSD=6.004e-09\RMSF=9.360e-03\Dipole=-0.0004315,
 0.3312362,-0.000075\Quadrupole=0.7862696,-1.5722169,0.7859473,0.003777
 5,0.0006673,0.0017173\PG=C01 [X(C1H4)]\\@


 YOU CAN WIPE THE SLATE CLEAN, BUT YOU'LL STILL
 HAVE TO EAT A LITTLE CHALK DUST.
 Job cpu time:       0 days  0 hours  7 minutes 18.7 seconds.
 File lengths (MBytes):  RWF=     66 Int=      0 D2E=      0 Chk=      3 Scr=      1
 Normal termination of Gaussian 09 at Sat Jun  3 08:59:28 2023.
