 Entering Gaussian System, Link 0=g09
 Input=geom.com
 Output=geom.log
 Initial command:
 /software/cinetica/g09d1/g09d01/d01/build-node-6-2-59348/src/main/l1.exe "/scratch/cc/140684/Gau-235305.inp" -scrdir="/scratch/cc/140684/"
 Entering Link 1 = /software/cinetica/g09d1/g09d01/d01/build-node-6-2-59348/src/main/l1.exe PID=    235311.
  
 Copyright (c) 1988,1990,1992,1993,1995,1998,2003,2009,2013,
            Gaussian, Inc.  All Rights Reserved.
  
 This is part of the Gaussian(R) 09 program.  It is based on
 the Gaussian(R) 03 system (copyright 2003, Gaussian, Inc.),
 the Gaussian(R) 98 system (copyright 1998, Gaussian, Inc.),
 the Gaussian(R) 94 system (copyright 1995, Gaussian, Inc.),
 the Gaussian 92(TM) system (copyright 1992, Gaussian, Inc.),
 the Gaussian 90(TM) system (copyright 1990, Gaussian, Inc.),
 the Gaussian 88(TM) system (copyright 1988, Gaussian, Inc.),
 the Gaussian 86(TM) system (copyright 1986, Carnegie Mellon
 University), and the Gaussian 82(TM) system (copyright 1983,
 Carnegie Mellon University). Gaussian is a federally registered
 trademark of Gaussian, Inc.
  
 This software contains proprietary and confidential information,
 including trade secrets, belonging to Gaussian, Inc.
  
 This software is provided under written license and may be
 used, copied, transmitted, or stored only in accord with that
 written license.
  
 The following legend is applicable only to US Government
 contracts under FAR:
  
                    RESTRICTED RIGHTS LEGEND
  
 Use, reproduction and disclosure by the US Government is
 subject to restrictions as set forth in subparagraphs (a)
 and (c) of the Commercial Computer Software - Restricted
 Rights clause in FAR 52.227-19.
  
 Gaussian, Inc.
 340 Quinnipiac St., Bldg. 40, Wallingford CT 06492
  
  
 ---------------------------------------------------------------
 Warning -- This program may not be used in any manner that
 competes with the business of Gaussian, Inc. or will provide
 assistance to any competitor of Gaussian, Inc.  The licensee
 of this program is prohibited from giving any competitor of
 Gaussian, Inc. access to this program.  By using this program,
 the user acknowledges that Gaussian, Inc. is engaged in the
 business of creating and licensing software in the field of
 computational chemistry and represents and warrants to the
 licensee that it is not a competitor of Gaussian, Inc. and that
 it will not use this program in any manner prohibited above.
 ---------------------------------------------------------------
  

 Cite this work as:
 Gaussian 09, Revision D.01,
 M. J. Frisch, G. W. Trucks, H. B. Schlegel, G. E. Scuseria, 
 M. A. Robb, J. R. Cheeseman, G. Scalmani, V. Barone, B. Mennucci, 
 G. A. Petersson, H. Nakatsuji, M. Caricato, X. Li, H. P. Hratchian, 
 A. F. Izmaylov, J. Bloino, G. Zheng, J. L. Sonnenberg, M. Hada, 
 M. Ehara, K. Toyota, R. Fukuda, J. Hasegawa, M. Ishida, T. Nakajima, 
 Y. Honda, O. Kitao, H. Nakai, T. Vreven, J. A. Montgomery, Jr., 
 J. E. Peralta, F. Ogliaro, M. Bearpark, J. J. Heyd, E. Brothers, 
 K. N. Kudin, V. N. Staroverov, T. Keith, R. Kobayashi, J. Normand, 
 K. Raghavachari, A. Rendell, J. C. Burant, S. S. Iyengar, J. Tomasi, 
 M. Cossi, N. Rega, J. M. Millam, M. Klene, J. E. Knox, J. B. Cross, 
 V. Bakken, C. Adamo, J. Jaramillo, R. Gomperts, R. E. Stratmann, 
 O. Yazyev, A. J. Austin, R. Cammi, C. Pomelli, J. W. Ochterski, 
 R. L. Martin, K. Morokuma, V. G. Zakrzewski, G. A. Voth, 
 P. Salvador, J. J. Dannenberg, S. Dapprich, A. D. Daniels, 
 O. Farkas, J. B. Foresman, J. V. Ortiz, J. Cioslowski, 
 and D. J. Fox, Gaussian, Inc., Wallingford CT, 2013.
 
 ******************************************
 Gaussian 09:  EM64L-G09RevD.01 24-Apr-2013
                 3-Jun-2023 
 ******************************************
 %mem=400MW
 %chk=tmp
 %NProcShared= 32
 Will use up to   32 processors via shared memory.
 ----------------------------------------------------------------------
 # uwb97xd/aug-cc-pvtz opt=(noeig,intern,maxcyc=50) # int=ultrafine nos
 ym freq iop(7/33=1) guess=(mix,always)
 ----------------------------------------------------------------------
 1/6=50,10=7,11=1,14=-1,18=40,26=4,38=1/1,3;
 2/12=2,15=1,17=6,18=5,29=3,40=1/2;
 3/5=16,6=1,7=10,11=2,16=1,25=1,30=1,71=1,74=-58,75=-5,116=2/1,2,3;
 4/13=-1/1;
 5/5=2,38=5/2;
 6/7=2,8=2,9=2,10=2,28=1/1;
 7/29=1,30=1,33=1/1,2,3,16;
 1/6=50,10=7,11=1,14=-1,18=40,26=4/3(2);
 2/15=1,29=3/2;
 99//99;
 2/15=1,29=3/2;
 3/5=16,6=1,7=10,11=2,16=1,25=1,30=1,71=1,74=-58,75=-5,116=2/1,2,3;
 4/13=-1/1;
 5/5=2,38=5/2;
 7/30=1,33=1/1,2,3,16;
 1/6=50,11=1,14=-1,18=40,26=4/3(-5);
 2/15=1,29=3/2;
 6/7=2,8=2,9=2,10=2,19=2,28=1/1;
 99/9=1/99;
 ------
 geom 0
 ------
 Symbolic Z-matrix:
 Charge =  0 Multiplicity = 1
 C1
 H2                   C1   R1
 H3                   C1   R2       H2   A2
 H4                   C1   R3       H2   A3       H3   D3       0
 H21                  C1   BB       H2   ANG1     H3   DH1      0
       Variables:
  R1                    1.0791                   
  R2                    1.0791                   
  R3                    1.0791                   
  A2                  117.1143                   
  A3                  117.1221                   
  D3                  213.1119                   
  DH1                 106.5501                   
  ANG1                 99.8829                   
       Constants:
  BB                    2.4                      
 

 GradGradGradGradGradGradGradGradGradGradGradGradGradGradGradGradGradGrad
 Berny optimization.
 Initialization pass.
                       ----------------------------
                       !    Initial Parameters    !
                       ! (Angstroms and Degrees)  !
 ----------------------                            ----------------------
 !      Name          Value   Derivative information (Atomic Units)     !
 ------------------------------------------------------------------------
 !       R1          1.0791   estimate D2E/DX2                          !
 !       R2          1.0791   estimate D2E/DX2                          !
 !       R3          1.0791   estimate D2E/DX2                          !
 !       A2        117.1143   estimate D2E/DX2                          !
 !       A3        117.1221   estimate D2E/DX2                          !
 !       D3        213.1119   estimate D2E/DX2                          !
 !       DH1       106.5501   estimate D2E/DX2                          !
 !      ANG1        99.8829   estimate D2E/DX2                          !
 !       BB          2.4      Frozen                                    !
 ------------------------------------------------------------------------
 Trust Radius=3.00D-01 FncErr=1.00D-07 GrdErr=1.00D-06
 Number of steps in this run=     50 maximum allowed number of steps=    100.
 GradGradGradGradGradGradGradGradGradGradGradGradGradGradGradGradGradGrad

 ---------------------------------------------------------------------------------------------------
                            Z-MATRIX (ANGSTROMS AND DEGREES)
   CD    Cent   Atom    N1       Length/X        N2       Alpha/Y        N3        Beta/Z          J
 ---------------------------------------------------------------------------------------------------
      1      1  C 
      2      2  H        1   1.079100(     1)
      3      3  H        1   1.079100(     2)      2  117.114(     5)
      4      4  H        1   1.079100(     3)      2  117.122(     6)      3  213.112(     8)      0
      5      5  H        1   2.400000(     4)      2   99.883(     7)      3  106.550(     9)      0
 ---------------------------------------------------------------------------------------------------
                         Z-Matrix orientation:                         
 ---------------------------------------------------------------------
 Center     Atomic      Atomic             Coordinates (Angstroms)
 Number     Number       Type             X           Y           Z
 ---------------------------------------------------------------------
      1          6           0        0.000000    0.000000    0.000000
      2          1           0        0.000000    0.000000    1.079100
      3          1           0        0.960506    0.000000   -0.491818
      4          1           0       -0.804469    0.524665   -0.491949
      5          1           0       -0.673504   -2.266431   -0.411924
 ---------------------------------------------------------------------
                    Distance matrix (angstroms):
                    1          2          3          4          5
     1  C    0.000000
     2  H    1.079100   0.000000
     3  H    1.079100   1.841292   0.000000
     4  H    1.079100   1.841369   1.841306   0.000000
     5  H    2.400000   2.795259   2.795189   2.795313   0.000000
 Symmetry turned off by external request.
 Stoichiometry    CH4
 Framework group  C1[X(CH4)]
 Deg. of freedom     9
 Full point group                 C1      NOp   1
 Rotational constants (GHZ):    147.9014651     68.2791083     68.2774978
 Standard basis: Aug-CC-pVTZ (5D, 7F)
   138 basis functions,   180 primitive gaussians,   155 cartesian basis functions
     5 alpha electrons        5 beta electrons
       nuclear repulsion energy        11.5800266995 Hartrees.
 NAtoms=    5 NActive=    5 NUniq=    5 SFac= 1.00D+00 NAtFMM=   60 NAOKFM=F Big=F
 Integral buffers will be    131072 words long.
 Raffenetti 2 integral format.
 Two-electron integral symmetry is turned off.
 Nuclear repulsion after empirical dispersion term =       11.5793728835 Hartrees.
 One-electron integrals computed using PRISM.
 NBasis=   138 RedAO= T EigKep=  1.07D-04  NBF=   138
 NBsUse=   138 1.00D-06 EigRej= -1.00D+00 NBFU=   138
 ExpMin= 2.53D-02 ExpMax= 8.24D+03 ExpMxC= 2.81D+02 IAcc=3 IRadAn=         5 AccDes= 0.00D+00
 Harris functional with IExCor= 4639 and IRadAn=       5 diagonalized for initial guess.
 HarFok:  IExCor= 4639 AccDes= 0.00D+00 IRadAn=         5 IDoV= 1 UseB2=F ITyADJ=14
 ICtDFT=  3500011 ScaDFX=  1.000000  1.000000  1.000000  1.000000
 FoFCou: FMM=F IPFlag=           0 FMFlag=      100000 FMFlg1=           0
         NFxFlg=           0 DoJE=T BraDBF=F KetDBF=T FulRan=T
         wScrn=  0.000000 ICntrl=     500 IOpCl=  0 I1Cent=   200000004 NGrid=           0
         NMat0=    1 NMatS0=      1 NMatT0=    0 NMatD0=    1 NMtDS0=    0 NMtDT0=    0
 Symmetry not used in FoFCou.
 Mixing orbitals, IMix= 1 IMixAn=  0 NRI=1 NE=    5 Coef=  7.07106781D-01  7.07106781D-01
 Mixing orbitals, IMix= 1 IMixAn=  0 NRI=1 NE=    5 Coef= -7.07106781D-01  7.07106781D-01
 Initial guess <Sx>= 0.0000 <Sy>= 0.0000 <Sz>= 0.0000 <S**2>= 1.0000 S= 0.6180
 Keep R1 and R2 ints in memory in canonical form, NReq=186089785.
 Requested convergence on RMS density matrix=1.00D-08 within 128 cycles.
 Requested convergence on MAX density matrix=1.00D-06.
 Requested convergence on             energy=1.00D-06.
 No special actions if energy rises.
 SCF Done:  E(UwB97XD) =  -40.3544461443     A.U. after   15 cycles
            NFock= 15  Conv=0.39D-08     -V/T= 2.0096
 <Sx>= 0.0000 <Sy>= 0.0000 <Sz>= 0.0000 <S**2>= 0.6481 S= 0.4477
 <L.S>=  0.00000000000    
 Annihilation of the first spin contaminant:
 S**2 before annihilation     0.6481,   after     0.0093

 **********************************************************************

            Population analysis using the SCF density.

 **********************************************************************

 Alpha  occ. eigenvalues --  -10.32156  -0.79894  -0.51725  -0.51724  -0.33709
 Alpha virt. eigenvalues --   -0.02380   0.03691   0.05059   0.05059   0.09811
 Alpha virt. eigenvalues --    0.11228   0.12671   0.12671   0.13735   0.19735
 Alpha virt. eigenvalues --    0.19736   0.19997   0.19997   0.27270   0.30214
 Alpha virt. eigenvalues --    0.31280   0.31281   0.32190   0.32191   0.33020
 Alpha virt. eigenvalues --    0.34323   0.37746   0.38142   0.38143   0.39650
 Alpha virt. eigenvalues --    0.41565   0.41566   0.45980   0.45980   0.58252
 Alpha virt. eigenvalues --    0.59304   0.59305   0.60916   0.69411   0.74061
 Alpha virt. eigenvalues --    0.74061   0.80088   0.81278   0.81379   0.81380
 Alpha virt. eigenvalues --    0.83185   0.83186   0.89239   0.91415   0.91417
 Alpha virt. eigenvalues --    0.94743   0.94781   0.94781   0.97328   0.97329
 Alpha virt. eigenvalues --    1.02938   1.03290   1.04218   1.04219   1.08294
 Alpha virt. eigenvalues --    1.08295   1.12883   1.12884   1.17971   1.21268
 Alpha virt. eigenvalues --    1.21270   1.26839   1.43117   1.43120   1.48019
 Alpha virt. eigenvalues --    1.48020   1.50932   1.51994   1.52392   1.52392
 Alpha virt. eigenvalues --    1.54626   1.55420   1.71901   1.76259   1.76260
 Alpha virt. eigenvalues --    1.89062   1.89064   1.89941   2.04788   2.04790
 Alpha virt. eigenvalues --    2.09690   2.69333   2.85521   2.85525   2.86967
 Alpha virt. eigenvalues --    2.92824   3.06208   3.06210   3.34315   3.34317
 Alpha virt. eigenvalues --    3.36626   3.37334   3.39850   3.39850   3.46208
 Alpha virt. eigenvalues --    3.47916   3.47918   3.70658   3.71457   3.71457
 Alpha virt. eigenvalues --    3.73915   3.80794   3.80794   3.85915   3.85915
 Alpha virt. eigenvalues --    3.96956   3.96956   4.00928   4.05356   4.05357
 Alpha virt. eigenvalues --    4.17179   4.20552   4.20554   4.35211   4.49210
 Alpha virt. eigenvalues --    4.49212   4.53119   4.63848   4.63850   4.69149
 Alpha virt. eigenvalues --    4.83499   4.98868   4.98873   5.06412   5.06413
 Alpha virt. eigenvalues --    5.27171   5.46734   5.46739   5.91186   5.92325
 Alpha virt. eigenvalues --    6.22155   6.22164  15.99170
  Beta  occ. eigenvalues --  -10.31259  -0.76372  -0.50702  -0.50700  -0.37553
  Beta virt. eigenvalues --   -0.00499   0.04057   0.05171   0.05171   0.06557
  Beta virt. eigenvalues --    0.12734   0.12734   0.12807   0.14028   0.19912
  Beta virt. eigenvalues --    0.19913   0.20420   0.20421   0.27645   0.30452
  Beta virt. eigenvalues --    0.31624   0.31625   0.32204   0.32204   0.33848
  Beta virt. eigenvalues --    0.34316   0.38113   0.38592   0.38593   0.38738
  Beta virt. eigenvalues --    0.41790   0.41791   0.46018   0.46018   0.54645
  Beta virt. eigenvalues --    0.59799   0.59800   0.61976   0.71639   0.74418
  Beta virt. eigenvalues --    0.74419   0.80191   0.81258   0.82267   0.82268
  Beta virt. eigenvalues --    0.83645   0.83645   0.89928   0.91742   0.91743
  Beta virt. eigenvalues --    0.93993   0.94445   0.94446   0.96139   0.96140
  Beta virt. eigenvalues --    1.02788   1.03671   1.04313   1.04314   1.07687
  Beta virt. eigenvalues --    1.07689   1.13015   1.13016   1.17516   1.21699
  Beta virt. eigenvalues --    1.21701   1.26575   1.43325   1.43328   1.48462
  Beta virt. eigenvalues --    1.48463   1.51021   1.52976   1.53009   1.53009
  Beta virt. eigenvalues --    1.54730   1.55591   1.73555   1.76950   1.76951
  Beta virt. eigenvalues --    1.89782   1.90117   1.90120   2.05061   2.05063
  Beta virt. eigenvalues --    2.11273   2.54909   2.86165   2.86170   2.89338
  Beta virt. eigenvalues --    2.96243   3.08391   3.08396   3.36457   3.36459
  Beta virt. eigenvalues --    3.37026   3.40322   3.43233   3.43233   3.48051
  Beta virt. eigenvalues --    3.49206   3.49209   3.70944   3.70945   3.71591
  Beta virt. eigenvalues --    3.73639   3.73639   3.74216   3.79836   3.79836
  Beta virt. eigenvalues --    3.90369   3.90369   3.94656   3.97578   3.97579
  Beta virt. eigenvalues --    4.17538   4.21293   4.21296   4.25427   4.49177
  Beta virt. eigenvalues --    4.49178   4.52308   4.64312   4.64314   4.68933
  Beta virt. eigenvalues --    4.84990   4.99271   4.99278   5.08442   5.08443
  Beta virt. eigenvalues --    5.28133   5.47366   5.47371   5.92161   5.93421
  Beta virt. eigenvalues --    6.22811   6.22821  16.01280
          Condensed to atoms (all electrons):
               1          2          3          4          5
     1  C    5.844119   0.345529   0.345434   0.345597   0.124621
     2  H    0.345529   0.286882   0.012430   0.012415  -0.006183
     3  H    0.345434   0.012430   0.286813   0.012421  -0.006194
     4  H    0.345597   0.012415   0.012421   0.286993  -0.006195
     5  H    0.124621  -0.006183  -0.006194  -0.006195   0.935445
          Atomic-Atomic Spin Densities.
               1          2          3          4          5
     1  C    0.736446   0.021374   0.021442   0.021335  -0.006544
     2  H    0.021374  -0.024897  -0.000136  -0.000125   0.008318
     3  H    0.021442  -0.000136  -0.024854  -0.000128   0.008329
     4  H    0.021335  -0.000125  -0.000128  -0.024982   0.008331
     5  H   -0.006544   0.008318   0.008329   0.008331  -0.826102
 Mulliken charges and spin densities:
               1          2
     1  C   -1.005299   0.794052
     2  H    0.348927   0.004535
     3  H    0.349097   0.004653
     4  H    0.348769   0.004430
     5  H   -0.041494  -0.807669
 Sum of Mulliken charges =  -0.00000  -0.00000
 Mulliken charges and spin densities with hydrogens summed into heavy atoms:
               1          2
     1  C   -0.000000  -0.000000
 Electronic spatial extent (au):  <R**2>=             54.4083
 Charge=             -0.0000 electrons
 Dipole moment (field-independent basis, Debye):
    X=              0.3053    Y=              1.0272    Z=              0.1867  Tot=              1.0877
 Quadrupole moment (field-independent basis, Debye-Ang):
   XX=             -8.9314   YY=            -10.9980   ZZ=             -8.8059
   XY=             -0.6738   XZ=             -0.1223   YZ=             -0.4121
 Traceless Quadrupole moment (field-independent basis, Debye-Ang):
   XX=              0.6471   YY=             -1.4196   ZZ=              0.7726
   XY=             -0.6738   XZ=             -0.1223   YZ=             -0.4121
 Octapole moment (field-independent basis, Debye-Ang**2):
  XXX=              3.4766  YYY=             11.3842  ZZZ=              2.9264  XYY=              1.0591
  XXY=              3.8793  XXZ=             -0.1429  XZZ=              1.0742  YZZ=              3.6154
  YYZ=              0.6478  XYZ=              0.2578
 Hexadecapole moment (field-independent basis, Debye-Ang**3):
 XXXX=            -21.1444 YYYY=            -63.2184 ZZZZ=            -18.3548 XXXY=             -7.0937
 XXXZ=             -1.4792 YYYX=             -6.6201 YYYZ=             -4.0490 ZZZX=             -1.2465
 ZZZY=             -4.1950 XXYY=            -14.1997 XXZZ=             -6.6949 YYZZ=            -13.9958
 XXYZ=             -1.5991 YYXZ=             -0.1993 ZZXY=             -2.3798
 N-N= 1.157937288347D+01 E-N=-1.158736194610D+02  KE= 3.996930240388D+01
                          Isotropic Fermi Contact Couplings
        Atom                 a.u.       MegaHertz       Gauss      10(-4) cm-1
     1  C(13)              0.05258      29.55252      10.54508       9.85766
     2  H(1)              -0.00925     -20.68026      -7.37923      -6.89819
     3  H(1)              -0.00925     -20.67704      -7.37808      -6.89712
     4  H(1)              -0.00926     -20.69262      -7.38364      -6.90231
     5  H(1)              -0.24155    -539.85069    -192.63214    -180.07481
 --------------------------------------------------------
       Center         ----  Spin Dipole Couplings  ----
                      3XX-RR        3YY-RR        3ZZ-RR
 --------------------------------------------------------
     1   Atom       -0.333265      0.731157     -0.397892
     2   Atom       -0.050769     -0.009768      0.060537
     3   Atom        0.036092     -0.009769     -0.026323
     4   Atom        0.021278      0.005036     -0.026314
     5   Atom       -0.011257      0.024692     -0.013435
 --------------------------------------------------------
                        XY            XZ            YZ
 --------------------------------------------------------
     1   Atom        0.347107      0.063089      0.212217
     2   Atom        0.013371     -0.001629     -0.005485
     3   Atom        0.001204     -0.046112      0.014402
     4   Atom       -0.021469      0.046488     -0.013129
     5   Atom        0.011716      0.002129      0.007166
 --------------------------------------------------------


 ---------------------------------------------------------------------------------
              Anisotropic Spin Dipole Couplings in Principal Axis System
 ---------------------------------------------------------------------------------

       Atom             a.u.   MegaHertz   Gauss  10(-4) cm-1        Axes

              Baa    -0.4365   -58.569   -20.899   -19.537 -0.1279 -0.1404  0.9818
     1 C(13)  Bbb    -0.4365   -58.568   -20.898   -19.536  0.9512 -0.2976  0.0814
              Bcc     0.8729   117.137    41.797    39.073  0.2807  0.9443  0.1716
 
              Baa    -0.0547   -29.209   -10.422    -9.743  0.9585 -0.2850 -0.0000
     2 H(1)   Bbb    -0.0063    -3.352    -1.196    -1.118  0.2839  0.9550  0.0853
              Bcc     0.0610    32.561    11.619    10.861 -0.0243 -0.0818  0.9964
 
              Baa    -0.0547   -29.209   -10.423    -9.743  0.4369 -0.2849  0.8532
     3 H(1)   Bbb    -0.0063    -3.354    -1.197    -1.119  0.2054  0.9550  0.2137
              Bcc     0.0610    32.564    11.620    10.862  0.8757 -0.0819 -0.4758
 
              Baa    -0.0547   -29.208   -10.422    -9.743 -0.5217  0.0000  0.8531
     4 H(1)   Bbb    -0.0063    -3.349    -1.195    -1.117  0.3498  0.9121  0.2139
              Bcc     0.0610    32.557    11.617    10.860  0.7781 -0.4100  0.4758
 
              Baa    -0.0147    -7.864    -2.806    -2.623  0.6576 -0.3194  0.6823
     5 H(1)   Bbb    -0.0147    -7.863    -2.806    -2.623 -0.6992  0.0786  0.7106
              Bcc     0.0295    15.727     5.612     5.246  0.2806  0.9444  0.1716
 

 ---------------------------------------------------------------------------------

 DipInt: DoE/N= T T RetVal/Mat= T F Init=T NMatP=  1 IDeriv=0 Min/MaxMlt=  1  1
 Entering OneElI...
 Multipole integrals L=1 to 1 MinM= 0 MaxM= 0.
 Requested accuracy = 0.1000D-12
 PrsmSu:  NPrtUS=   1 ThrOK=F IAlg=1 NPAlg=1 LenDen=           0.
 Prism:   IPart=     0 DynPar=F LinDyn=F Incr=          12.
 PRISM was handed   419323360 working-precision words and  1275 shell-pairs
 IPart=  0 NShTot=        1275 NBatch=          39 AvBLen=        32.7
 PrSmSu:  NxtVal=             13.
 Entering OneElI...
 Calculate overlap and kinetic energy integrals
    NBasis = 155  MinDer = 1  MaxDer = 1
 Requested accuracy = 0.1000D-12
 PrsmSu:  NPrtUS=  32 ThrOK=T IAlg=1 NPAlg=1 LenDen=           0.
 Prism:   IPart=     0 DynPar=F LinDyn=F Incr=           1.
 PRISM was handed    13082626 working-precision words and  1275 shell-pairs
 PRISM was handed    13082626 working-precision words and  1275 shell-pairs
 PRISM was handed    13082626 working-precision words and  1275 shell-pairs
 PRISM was handed    13082626 working-precision words and  1275 shell-pairs
 PRISM was handed    13082626 working-precision words and  1275 shell-pairs
 PRISM was handed    13082626 working-precision words and  1275 shell-pairs
 PRISM was handed    13082626 working-precision words and  1275 shell-pairs
 PRISM was handed    13082626 working-precision words and  1275 shell-pairs
 PRISM was handed    13082626 working-precision words and  1275 shell-pairs
 PRISM was handed    13082626 working-precision words and  1275 shell-pairs
 PRISM was handed    13082626 working-precision words and  1275 shell-pairs
 PRISM was handed    13082626 working-precision words and  1275 shell-pairs
 PRISM was handed    13082626 working-precision words and  1275 shell-pairs
 PRISM was handed    13082626 working-precision words and  1275 shell-pairs
 PRISM was handed    13082626 working-precision words and  1275 shell-pairs
 PRISM was handed    13082626 working-precision words and  1275 shell-pairs
 PRISM was handed    13082626 working-precision words and  1275 shell-pairs
 PRISM was handed    13082626 working-precision words and  1275 shell-pairs
 PRISM was handed    13082626 working-precision words and  1275 shell-pairs
 PRISM was handed    13082626 working-precision words and  1275 shell-pairs
 PRISM was handed    13082626 working-precision words and  1275 shell-pairs
 PRISM was handed    13082626 working-precision words and  1275 shell-pairs
 PRISM was handed    13082626 working-precision words and  1275 shell-pairs
 PRISM was handed    13082626 working-precision words and  1275 shell-pairs
 PRISM was handed    13082626 working-precision words and  1275 shell-pairs
 PRISM was handed    13082626 working-precision words and  1275 shell-pairs
 PRISM was handed    13082626 working-precision words and  1275 shell-pairs
 PRISM was handed    13082626 working-precision words and  1275 shell-pairs
 PRISM was handed    13082626 working-precision words and  1275 shell-pairs
 PRISM was handed    13082626 working-precision words and  1275 shell-pairs
 PRISM was handed    13082626 working-precision words and  1275 shell-pairs
 PRISM was handed    13082626 working-precision words and  1275 shell-pairs
 IPart= 15 NShTot=          36 NBatch=          13 AvBLen=         2.8
 IPart= 19 NShTot=          35 NBatch=          12 AvBLen=         2.9
 IPart=  3 NShTot=          49 NBatch=          22 AvBLen=         2.2
 IPart= 25 NShTot=          32 NBatch=          11 AvBLen=         2.9
 IPart=  0 NShTot=          66 NBatch=          37 AvBLen=         1.8
 IPart= 17 NShTot=          35 NBatch=          12 AvBLen=         2.9
 IPart=  1 NShTot=          59 NBatch=          31 AvBLen=         1.9
 IPart= 11 NShTot=          41 NBatch=          17 AvBLen=         2.4
 IPart= 29 NShTot=          31 NBatch=          11 AvBLen=         2.8
 IPart=  5 NShTot=          47 NBatch=          22 AvBLen=         2.1
 IPart= 14 NShTot=          40 NBatch=          17 AvBLen=         2.4
 IPart=  6 NShTot=          46 NBatch=          21 AvBLen=         2.2
 IPart= 23 NShTot=          34 NBatch=          11 AvBLen=         3.1
 IPart=  9 NShTot=          45 NBatch=          20 AvBLen=         2.3
 IPart=  7 NShTot=          46 NBatch=          21 AvBLen=         2.2
 IPart= 30 NShTot=          29 NBatch=           9 AvBLen=         3.2
 IPart=  2 NShTot=          55 NBatch=          28 AvBLen=         2.0
 IPart= 13 NShTot=          40 NBatch=          17 AvBLen=         2.4
 IPart= 20 NShTot=          35 NBatch=          12 AvBLen=         2.9
 IPart= 10 NShTot=          45 NBatch=          20 AvBLen=         2.3
 IPart= 31 NShTot=          29 NBatch=           9 AvBLen=         3.2
 IPart= 12 NShTot=          40 NBatch=          17 AvBLen=         2.4
 IPart=  4 NShTot=          49 NBatch=          22 AvBLen=         2.2
 IPart= 28 NShTot=          31 NBatch=          11 AvBLen=         2.8
 IPart= 24 NShTot=          32 NBatch=          11 AvBLen=         2.9
 IPart= 18 NShTot=          35 NBatch=          12 AvBLen=         2.9
 IPart=  8 NShTot=          45 NBatch=          20 AvBLen=         2.3
 IPart= 26 NShTot=          32 NBatch=          11 AvBLen=         2.9
 IPart= 27 NShTot=          32 NBatch=          11 AvBLen=         2.9
 IPart= 22 NShTot=          34 NBatch=          11 AvBLen=         3.1
 IPart= 16 NShTot=          35 NBatch=          12 AvBLen=         2.9
 IPart= 21 NShTot=          35 NBatch=          12 AvBLen=         2.9
 PrSmSu:  NxtVal=             33.
 Entering OneElI...
 Calculate potential energy integrals
    NBasis = 155  MinDer = 1  MaxDer = 1
 Requested accuracy = 0.1000D-12
 PrsmSu:  NPrtUS=  32 ThrOK=T IAlg=1 NPAlg=1 LenDen=           0.
 PRISM was handed    13083771 working-precision words and  1275 shell-pairs
 PRISM was handed    13083771 working-precision words and  1275 shell-pairs
 PRISM was handed    13083771 working-precision words and  1275 shell-pairs
 PRISM was handed    13083771 working-precision words and  1275 shell-pairs
 PRISM was handed    13083771 working-precision words and  1275 shell-pairs
 PRISM was handed    13083771 working-precision words and  1275 shell-pairs
 PRISM was handed    13083771 working-precision words and  1275 shell-pairs
 PRISM was handed    13083771 working-precision words and  1275 shell-pairs
 PRISM was handed    13083771 working-precision words and  1275 shell-pairs
 PRISM was handed    13083771 working-precision words and  1275 shell-pairs
 Prism:   IPart=     0 DynPar=F LinDyn=F Incr=           1.
 PRISM was handed    13083771 working-precision words and  1275 shell-pairs
 PRISM was handed    13083771 working-precision words and  1275 shell-pairs
 PRISM was handed    13083771 working-precision words and  1275 shell-pairs
 PRISM was handed    13083771 working-precision words and  1275 shell-pairs
 PRISM was handed    13083771 working-precision words and  1275 shell-pairs
 PRISM was handed    13083771 working-precision words and  1275 shell-pairs
 PRISM was handed    13083771 working-precision words and  1275 shell-pairs
 PRISM was handed    13083771 working-precision words and  1275 shell-pairs
 PRISM was handed    13083771 working-precision words and  1275 shell-pairs
 PRISM was handed    13083771 working-precision words and  1275 shell-pairs
 PRISM was handed    13083771 working-precision words and  1275 shell-pairs
 PRISM was handed    13083771 working-precision words and  1275 shell-pairs
 PRISM was handed    13083771 working-precision words and  1275 shell-pairs
 PRISM was handed    13083771 working-precision words and  1275 shell-pairs
 PRISM was handed    13083771 working-precision words and  1275 shell-pairs
 PRISM was handed    13083771 working-precision words and  1275 shell-pairs
 PRISM was handed    13083771 working-precision words and  1275 shell-pairs
 PRISM was handed    13083771 working-precision words and  1275 shell-pairs
 PRISM was handed    13083771 working-precision words and  1275 shell-pairs
 PRISM was handed    13083771 working-precision words and  1275 shell-pairs
 PRISM was handed    13083771 working-precision words and  1275 shell-pairs
 PRISM was handed    13083771 working-precision words and  1275 shell-pairs
 IPart= 22 NShTot=         170 NBatch=          34 AvBLen=         5.0
 IPart= 29 NShTot=         160 NBatch=          32 AvBLen=         5.0
 IPart= 10 NShTot=         215 NBatch=          43 AvBLen=         5.0
 IPart= 23 NShTot=         170 NBatch=          34 AvBLen=         5.0
 IPart= 25 NShTot=         160 NBatch=          32 AvBLen=         5.0
 IPart= 19 NShTot=         175 NBatch=          35 AvBLen=         5.0
 IPart= 17 NShTot=         175 NBatch=          35 AvBLen=         5.0
 IPart= 26 NShTot=         160 NBatch=          32 AvBLen=         5.0
 IPart= 20 NShTot=         175 NBatch=          35 AvBLen=         5.0
 IPart=  9 NShTot=         215 NBatch=          43 AvBLen=         5.0
 IPart= 14 NShTot=         190 NBatch=          38 AvBLen=         5.0
 IPart=  8 NShTot=         220 NBatch=          44 AvBLen=         5.0
 IPart= 13 NShTot=         200 NBatch=          40 AvBLen=         5.0
 IPart= 28 NShTot=         160 NBatch=          32 AvBLen=         5.0
 IPart= 30 NShTot=         150 NBatch=          30 AvBLen=         5.0
 IPart= 24 NShTot=         160 NBatch=          32 AvBLen=         5.0
 IPart= 16 NShTot=         180 NBatch=          36 AvBLen=         5.0
 IPart=  4 NShTot=         245 NBatch=          49 AvBLen=         5.0
 IPart=  7 NShTot=         225 NBatch=          45 AvBLen=         5.0
 IPart=  1 NShTot=         300 NBatch=          60 AvBLen=         5.0
 IPart= 18 NShTot=         175 NBatch=          35 AvBLen=         5.0
 IPart= 15 NShTot=         180 NBatch=          36 AvBLen=         5.0
 IPart=  3 NShTot=         250 NBatch=          50 AvBLen=         5.0
 IPart=  5 NShTot=         235 NBatch=          47 AvBLen=         5.0
 IPart= 12 NShTot=         200 NBatch=          40 AvBLen=         5.0
 IPart= 31 NShTot=         145 NBatch=          29 AvBLen=         5.0
 IPart=  2 NShTot=         280 NBatch=          56 AvBLen=         5.0
 IPart= 11 NShTot=         200 NBatch=          40 AvBLen=         5.0
 IPart= 27 NShTot=         160 NBatch=          32 AvBLen=         5.0
 IPart= 21 NShTot=         175 NBatch=          35 AvBLen=         5.0
 IPart=  0 NShTot=         335 NBatch=          67 AvBLen=         5.0
 IPart=  6 NShTot=         235 NBatch=          47 AvBLen=         5.0
 PrSmSu:  NxtVal=             33.
 l701 out
 I=    0 X=   1.201185249550D-01 Y=   4.041264427316D-01 Z=   7.345015050784D-02
 I=    1 X=  -1.599371459941D-01 Y=  -5.385298692645D-01 Z=  -9.774055759751D-02
 I=    2 X=   4.986193524508D-03 Y=   1.707166736014D-02 Z=   2.388358535421D+00
 I=    3 X=   2.127964020938D+00 Y=   1.706249184984D-02 Z=  -1.084036301861D+00
 I=    4 X=  -1.773207507577D+00 Y=   1.176793460649D+00 Z=  -1.084374143291D+00
 I=    5 X=  -1.998055608920D-01 Y=  -6.723977505948D-01 Z=  -1.222075326716D-01
 ICntrl=      2127.
 Calling FoFJK, ICntrl=      2127 FMM=F ISym2X=0 I1Cent= 0 IOpClX= 1 NMat=1 NMatS=1 NMatT=0.
 FoFJK:  IHMeth= 1 ICntrl=    2127 DoSepK=T KAlg= 0 I1Cent=   0 FoldK=F
 IRaf=         1 NMat=   1 IRICut=       1 DoRegI=T DoRafI=F ISym2E= 0.
 FoFCou: FMM=F IPFlag=           0 FMFlag=      100000 FMFlg1=         800
         NFxFlg=           0 DoJE=F BraDBF=F KetDBF=F FulRan=T
         wScrn=  0.000000 ICntrl=    2527 IOpCl=  0 I1Cent=           0 NGrid=           0
         NMat0=    1 NMatS0=      1 NMatT0=    0 NMatD0=    1 NMtDS0=    0 NMtDT0=    0
 Symmetry not used in FoFCou.
 FoFCou:  KetSym=F NOpSet=  1 NOpAb=1 NOp=  1.
 FoFCou:  CnvScl= 1.00D+00 Thresh= 1.00D-10 IAcrcy=      10.
 PrismS was handed   419298218 working-precision words and  1275 shell-pairs
 FoFCou: LinMIO=F DoNuc=F BraDBF=F KetDBF=F HaveP=T PDBF=F HaveZ=T HaveW=F
         NIJTC =      10 NIJTAt=       0 NIJTCD=       0 NIJTT =      10
         IJTBeg=       1 IJTEnd=      10 KLTBeg=       1 KLTEnd=      10
         IPTBeg=       1 IPTEnd=      10 IPTBCv=       1 IPTECv=      10
         IZTBeg=       1 IZTEnd=      10 IZTBCv=       1 IZTECv=      10
         IWTBeg=      11 IWTEnd=      10 IWTBCv=      11 IWTECv=      10
         INTBeg=       1 INTEnd=       0 IFTBCv=       1 IFTECv=      10
 NCel replicated for PrismC:     1
 CoulSu:  IncDef=  1024 NBBP=         813450 NTPThr=   100 NPartT=   32 Incr=         254 LDynOK=F.
 CoulSu:  NPrtUS=  32 ThrOK=T IAlg=1 NPAlg=1 LenDen=           0 LWGrdD=           0 DoCopy=F.
 Enter PrismC: JobTyp=21 DoJE=F Cont=F.
 PrismC:  IPart=     0 DynPar=T LinDyn=F Incr=         254 UseFst=F UseS4=T IGathr=2.
 Enter PrismC: JobTyp=21 DoJE=F Cont=F.
 Enter PrismC: JobTyp=21 DoJE=F Cont=F.
 PrismC was handed    13082766 working-precision words and  1275 shell-pairs
 Enter PrismC: JobTyp=21 DoJE=F Cont=F.
 Enter PrismC: JobTyp=21 DoJE=F Cont=F.
 Enter PrismC: JobTyp=21 DoJE=F Cont=F.
 Enter PrismC: JobTyp=21 DoJE=F Cont=F.
 Enter PrismC: JobTyp=21 DoJE=F Cont=F.
 Enter PrismC: JobTyp=21 DoJE=F Cont=F.
 Enter PrismC: JobTyp=21 DoJE=F Cont=F.
 Enter PrismC: JobTyp=21 DoJE=F Cont=F.
 Enter PrismC: JobTyp=21 DoJE=F Cont=F.
 Enter PrismC: JobTyp=21 DoJE=F Cont=F.
 Enter PrismC: JobTyp=21 DoJE=F Cont=F.
 PrismC was handed    13082766 working-precision words and  1275 shell-pairs
 Enter PrismC: JobTyp=21 DoJE=F Cont=F.
 PrismC was handed    13082766 working-precision words and  1275 shell-pairs
 Enter PrismC: JobTyp=21 DoJE=F Cont=F.
 PrismC was handed    13082766 working-precision words and  1275 shell-pairs
 Enter PrismC: JobTyp=21 DoJE=F Cont=F.
 PrismC was handed    13082766 working-precision words and  1275 shell-pairs
 Enter PrismC: JobTyp=21 DoJE=F Cont=F.
 PrismC was handed    13082766 working-precision words and  1275 shell-pairs
 Enter PrismC: JobTyp=21 DoJE=F Cont=F.
 PrismC was handed    13082766 working-precision words and  1275 shell-pairs
 Enter PrismC: JobTyp=21 DoJE=F Cont=F.
 Enter PrismC: JobTyp=21 DoJE=F Cont=F.
 PrismC was handed    13082766 working-precision words and  1275 shell-pairs
 Enter PrismC: JobTyp=21 DoJE=F Cont=F.
 PrismC was handed    13082766 working-precision words and  1275 shell-pairs
 Enter PrismC: JobTyp=21 DoJE=F Cont=F.
 PrismC was handed    13082766 working-precision words and  1275 shell-pairs
 Enter PrismC: JobTyp=21 DoJE=F Cont=F.
 PrismC was handed    13082766 working-precision words and  1275 shell-pairs
 Enter PrismC: JobTyp=21 DoJE=F Cont=F.
 PrismC was handed    13082766 working-precision words and  1275 shell-pairs
 Enter PrismC: JobTyp=21 DoJE=F Cont=F.
 Enter PrismC: JobTyp=21 DoJE=F Cont=F.
 Enter PrismC: JobTyp=21 DoJE=F Cont=F.
 Enter PrismC: JobTyp=21 DoJE=F Cont=F.
 Enter PrismC: JobTyp=21 DoJE=F Cont=F.
 PrismC was handed    13082766 working-precision words and  1275 shell-pairs
 Enter PrismC: JobTyp=21 DoJE=F Cont=F.
 PrismC was handed    13082766 working-precision words and  1275 shell-pairs
 Enter PrismC: JobTyp=21 DoJE=F Cont=F.
 PrismC was handed    13082766 working-precision words and  1275 shell-pairs
 PrismC was handed    13082766 working-precision words and  1275 shell-pairs
 PrismC was handed    13082766 working-precision words and  1275 shell-pairs
 PrismC was handed    13082766 working-precision words and  1275 shell-pairs
 PrismC was handed    13082766 working-precision words and  1275 shell-pairs
 PrismC was handed    13082766 working-precision words and  1275 shell-pairs
 PrismC was handed    13082766 working-precision words and  1275 shell-pairs
 PrismC was handed    13082766 working-precision words and  1275 shell-pairs
 PrismC was handed    13082766 working-precision words and  1275 shell-pairs
 PrismC was handed    13082766 working-precision words and  1275 shell-pairs
 PrismC was handed    13082766 working-precision words and  1275 shell-pairs
 PrismC was handed    13082766 working-precision words and  1275 shell-pairs
 PrismC was handed    13082766 working-precision words and  1275 shell-pairs
 PrismC was handed    13082766 working-precision words and  1275 shell-pairs
 PrismC was handed    13082766 working-precision words and  1275 shell-pairs
 PrismC was handed    13082766 working-precision words and  1275 shell-pairs
 PrismC was handed    13082766 working-precision words and  1275 shell-pairs
 PrismC was handed    13082766 working-precision words and  1275 shell-pairs
 IPart=  3 NShTot=       31044 NShNF=       31044 NShFF=           0 NBatch=         302 AvBLen=       102.8
 IPart= 12 NShTot=       29004 NShNF=       29004 NShFF=           0 NBatch=         298 AvBLen=        97.3
 IPart= 13 NShTot=       31243 NShNF=       31243 NShFF=           0 NBatch=         294 AvBLen=       106.3
 IPart= 17 NShTot=       32403 NShNF=       32403 NShFF=           0 NBatch=         313 AvBLen=       103.5
 IPart=  0 NShTot=       24166 NShNF=       24166 NShFF=           0 NBatch=         242 AvBLen=        99.9
 IPart=  2 NShTot=       28820 NShNF=       28820 NShFF=           0 NBatch=         293 AvBLen=        98.4
 IPart= 27 NShTot=       29579 NShNF=       29579 NShFF=           0 NBatch=         318 AvBLen=        93.0
 IPart= 18 NShTot=       29109 NShNF=       29109 NShFF=           0 NBatch=         285 AvBLen=       102.1
 IPart= 21 NShTot=       30751 NShNF=       30751 NShFF=           0 NBatch=         323 AvBLen=        95.2
 IPart= 24 NShTot=       31189 NShNF=       31189 NShFF=           0 NBatch=         282 AvBLen=       110.6
 IPart= 30 NShTot=       31551 NShNF=       31551 NShFF=           0 NBatch=         326 AvBLen=        96.8
 IPart= 31 NShTot=       28492 NShNF=       28492 NShFF=           0 NBatch=         262 AvBLen=       108.7
 IPart= 23 NShTot=       29662 NShNF=       29662 NShFF=           0 NBatch=         323 AvBLen=        91.8
 IPart= 26 NShTot=       25806 NShNF=       25806 NShFF=           0 NBatch=         282 AvBLen=        91.5
 IPart= 16 NShTot=       32501 NShNF=       32501 NShFF=           0 NBatch=         308 AvBLen=       105.5
 IPart=  7 NShTot=       31467 NShNF=       31467 NShFF=           0 NBatch=         297 AvBLen=       105.9
 IPart=  5 NShTot=       33398 NShNF=       33398 NShFF=           0 NBatch=         315 AvBLen=       106.0
 IPart= 14 NShTot=       29526 NShNF=       29526 NShFF=           0 NBatch=         307 AvBLen=        96.2
 IPart= 28 NShTot=       31529 NShNF=       31529 NShFF=           0 NBatch=         318 AvBLen=        99.1
 IPart=  9 NShTot=       25526 NShNF=       25526 NShFF=           0 NBatch=         283 AvBLen=        90.2
 IPart=  1 NShTot=       32644 NShNF=       32644 NShFF=           0 NBatch=         317 AvBLen=       103.0
 IPart= 15 NShTot=       28179 NShNF=       28179 NShFF=           0 NBatch=         215 AvBLen=       131.1
 IPart= 29 NShTot=       27869 NShNF=       27869 NShFF=           0 NBatch=         337 AvBLen=        82.7
 IPart=  6 NShTot=       34282 NShNF=       34282 NShFF=           0 NBatch=         312 AvBLen=       109.9
 IPart= 10 NShTot=       30511 NShNF=       30511 NShFF=           0 NBatch=         305 AvBLen=       100.0
 IPart= 25 NShTot=       28169 NShNF=       28169 NShFF=           0 NBatch=         339 AvBLen=        83.1
 IPart= 11 NShTot=        2826 NShNF=        2826 NShFF=           0 NBatch=          43 AvBLen=        65.7
 IPart= 20 NShTot=        2322 NShNF=        2322 NShFF=           0 NBatch=          50 AvBLen=        46.4
 IPart= 19 NShTot=        1757 NShNF=        1757 NShFF=           0 NBatch=          32 AvBLen=        54.9
 IPart=  4 NShTot=        1965 NShNF=        1965 NShFF=           0 NBatch=          36 AvBLen=        54.6
 IPart= 22 NShTot=        9238 NShNF=        9238 NShFF=           0 NBatch=          55 AvBLen=       168.0
 IPart=  8 NShTot=        1209 NShNF=        1209 NShFF=           0 NBatch=          35 AvBLen=        34.5
 CoulSu:  NxtVal=         897129.
 FoFCou: FMM=F IPFlag=           0 FMFlag=      100000 FMFlg1=         800
         NFxFlg=           0 DoJE=F BraDBF=F KetDBF=F FulRan=T
         wScrn=  0.000000 ICntrl=    2127 IOpCl=  1 I1Cent=           0 NGrid=           0
         NMat0=    1 NMatS0=      0 NMatT0=    1 NMatD0=    1 NMtDS0=    0 NMtDT0=    0
         CW=    0.222036    0.777964
         WU=    0.000000   12.500000
 Symmetry not used in FoFCou.
 FoFCou:  KetSym=F NOpSet=  1 NOpAb=1 NOp=  1.
 FoFCou:  CnvScl= 1.00D+00 Thresh= 1.00D-10 IAcrcy=      10.
 PrismS was handed   419296978 working-precision words and  1275 shell-pairs
 FoFCou: LinMIO=F DoNuc=F BraDBF=F KetDBF=F HaveP=T PDBF=F HaveZ=T HaveW=F
         NIJTC =      10 NIJTAt=       0 NIJTCD=       0 NIJTT =      10
         IJTBeg=       1 IJTEnd=      10 KLTBeg=       1 KLTEnd=      10
         IPTBeg=       1 IPTEnd=      10 IPTBCv=       1 IPTECv=      10
         IZTBeg=       1 IZTEnd=      10 IZTBCv=       1 IZTECv=      10
         IWTBeg=      11 IWTEnd=      10 IWTBCv=      11 IWTECv=      10
         INTBeg=       1 INTEnd=       0 IFTBCv=       1 IFTECv=      10
 NCel replicated for PrismC:     1
 CoulSu:  IncDef=  1024 NBBP=         813450 NTPThr=   100 NPartT=   32 Incr=         254 LDynOK=F.
 CoulSu:  NPrtUS=  32 ThrOK=T IAlg=1 NPAlg=1 LenDen=           0 LWGrdD=           0 DoCopy=F.
 Enter PrismC: JobTyp=21 DoJE=F Cont=F.
 Linear combination for Coulomb/exchange, wScrn=  0.000000
 CW=    0.222036    0.777964
 Enter PrismC: JobTyp=21 DoJE=F Cont=F.
 Enter PrismC: JobTyp=21 DoJE=F Cont=F.
 Enter PrismC: JobTyp=21 DoJE=F Cont=F.
 Linear combination for Coulomb/exchange, wScrn=  0.000000
 CW=    0.222036    0.777964
 WU=    0.000000   12.500000
 Enter PrismC: JobTyp=21 DoJE=F Cont=F.
 Enter PrismC: JobTyp=21 DoJE=F Cont=F.
 Linear combination for Coulomb/exchange, wScrn=  0.000000
 CW=    0.222036    0.777964
 WU=    0.000000   12.500000
 Enter PrismC: JobTyp=21 DoJE=F Cont=F.
 Linear combination for Coulomb/exchange, wScrn=  0.000000
 CW=    0.222036    0.777964
 WU=    0.000000   12.500000
 Enter PrismC: JobTyp=21 DoJE=F Cont=F.
 Linear combination for Coulomb/exchange, wScrn=  0.000000
 CW=    0.222036    0.777964
 WU=    0.000000   12.500000
 Enter PrismC: JobTyp=21 DoJE=F Cont=F.
 Linear combination for Coulomb/exchange, wScrn=  0.000000
 CW=    0.222036    0.777964
 WU=    0.000000   12.500000
 Enter PrismC: JobTyp=21 DoJE=F Cont=F.
 Linear combination for Coulomb/exchange, wScrn=  0.000000
 CW=    0.222036    0.777964
 WU=    0.000000   12.500000
 Enter PrismC: JobTyp=21 DoJE=F Cont=F.
 Linear combination for Coulomb/exchange, wScrn=  0.000000
 CW=    0.222036    0.777964
 WU=    0.000000   12.500000
 Enter PrismC: JobTyp=21 DoJE=F Cont=F.
 Linear combination for Coulomb/exchange, wScrn=  0.000000
 CW=    0.222036    0.777964
 WU=    0.000000   12.500000
 Enter PrismC: JobTyp=21 DoJE=F Cont=F.
 Linear combination for Coulomb/exchange, wScrn=  0.000000
 CW=    0.222036    0.777964
 WU=    0.000000   12.500000
 Enter PrismC: JobTyp=21 DoJE=F Cont=F.
 Linear combination for Coulomb/exchange, wScrn=  0.000000
 CW=    0.222036    0.777964
 WU=    0.000000   12.500000
 Enter PrismC: JobTyp=21 DoJE=F Cont=F.
 Linear combination for Coulomb/exchange, wScrn=  0.000000
 CW=    0.222036    0.777964
 WU=    0.000000   12.500000
 Enter PrismC: JobTyp=21 DoJE=F Cont=F.
 Linear combination for Coulomb/exchange, wScrn=  0.000000
 CW=    0.222036    0.777964
 WU=    0.000000   12.500000
 Enter PrismC: JobTyp=21 DoJE=F Cont=F.
 Linear combination for Coulomb/exchange, wScrn=  0.000000
 CW=    0.222036    0.777964
 WU=    0.000000   12.500000
 Enter PrismC: JobTyp=21 DoJE=F Cont=F.
 Linear combination for Coulomb/exchange, wScrn=  0.000000
 CW=    0.222036    0.777964
 WU=    0.000000   12.500000
 Enter PrismC: JobTyp=21 DoJE=F Cont=F.
 Linear combination for Coulomb/exchange, wScrn=  0.000000
 CW=    0.222036    0.777964
 WU=    0.000000   12.500000
 Enter PrismC: JobTyp=21 DoJE=F Cont=F.
 Linear combination for Coulomb/exchange, wScrn=  0.000000
 CW=    0.222036    0.777964
 WU=    0.000000   12.500000
 PrismC was handed    13082727 working-precision words and  1275 shell-pairs
 Linear combination for Coulomb/exchange, wScrn=  0.000000
 CW=    0.222036    0.777964
 WU=    0.000000   12.500000
 Enter PrismC: JobTyp=21 DoJE=F Cont=F.
 Linear combination for Coulomb/exchange, wScrn=  0.000000
 CW=    0.222036    0.777964
 WU=    0.000000   12.500000
 Enter PrismC: JobTyp=21 DoJE=F Cont=F.
 Linear combination for Coulomb/exchange, wScrn=  0.000000
 CW=    0.222036    0.777964
 WU=    0.000000   12.500000
 Enter PrismC: JobTyp=21 DoJE=F Cont=F.
 Linear combination for Coulomb/exchange, wScrn=  0.000000
 CW=    0.222036    0.777964
 WU=    0.000000   12.500000
 Enter PrismC: JobTyp=21 DoJE=F Cont=F.
 Linear combination for Coulomb/exchange, wScrn=  0.000000
 CW=    0.222036    0.777964
 WU=    0.000000   12.500000
 Enter PrismC: JobTyp=21 DoJE=F Cont=F.
 Linear combination for Coulomb/exchange, wScrn=  0.000000
 CW=    0.222036    0.777964
 WU=    0.000000   12.500000
 Enter PrismC: JobTyp=21 DoJE=F Cont=F.
 Linear combination for Coulomb/exchange, wScrn=  0.000000
 CW=    0.222036    0.777964
 WU=    0.000000   12.500000
 Enter PrismC: JobTyp=21 DoJE=F Cont=F.
 Linear combination for Coulomb/exchange, wScrn=  0.000000
 CW=    0.222036    0.777964
 WU=    0.000000   12.500000
 PrismC was handed    13082727 working-precision words and  1275 shell-pairs
 PrismC was handed    13082727 working-precision words and  1275 shell-pairs
 PrismC was handed    13082727 working-precision words and  1275 shell-pairs
 Enter PrismC: JobTyp=21 DoJE=F Cont=F.
 Linear combination for Coulomb/exchange, wScrn=  0.000000
 CW=    0.222036    0.777964
 WU=    0.000000   12.500000
 Enter PrismC: JobTyp=21 DoJE=F Cont=F.
 Linear combination for Coulomb/exchange, wScrn=  0.000000
 CW=    0.222036    0.777964
 WU=    0.000000   12.500000
 Enter PrismC: JobTyp=21 DoJE=F Cont=F.
 Linear combination for Coulomb/exchange, wScrn=  0.000000
 CW=    0.222036    0.777964
 WU=    0.000000   12.500000
 Enter PrismC: JobTyp=21 DoJE=F Cont=F.
 Linear combination for Coulomb/exchange, wScrn=  0.000000
 CW=    0.222036    0.777964
 WU=    0.000000   12.500000
 Linear combination for Coulomb/exchange, wScrn=  0.000000
 CW=    0.222036    0.777964
 WU=    0.000000   12.500000
 PrismC was handed    13082727 working-precision words and  1275 shell-pairs
 Linear combination for Coulomb/exchange, wScrn=  0.000000
 CW=    0.222036    0.777964
 WU=    0.000000   12.500000
 PrismC was handed    13082727 working-precision words and  1275 shell-pairs
 Enter PrismC: JobTyp=21 DoJE=F Cont=F.
 Linear combination for Coulomb/exchange, wScrn=  0.000000
 CW=    0.222036    0.777964
 WU=    0.000000   12.500000
 PrismC was handed    13082727 working-precision words and  1275 shell-pairs
 PrismC was handed    13082727 working-precision words and  1275 shell-pairs
 PrismC was handed    13082727 working-precision words and  1275 shell-pairs
 PrismC was handed    13082727 working-precision words and  1275 shell-pairs
 PrismC was handed    13082727 working-precision words and  1275 shell-pairs
 PrismC was handed    13082727 working-precision words and  1275 shell-pairs
 PrismC was handed    13082727 working-precision words and  1275 shell-pairs
 PrismC was handed    13082727 working-precision words and  1275 shell-pairs
 PrismC was handed    13082727 working-precision words and  1275 shell-pairs
 PrismC was handed    13082727 working-precision words and  1275 shell-pairs
 PrismC was handed    13082727 working-precision words and  1275 shell-pairs
 PrismC was handed    13082727 working-precision words and  1275 shell-pairs
 PrismC was handed    13082727 working-precision words and  1275 shell-pairs
 PrismC was handed    13082727 working-precision words and  1275 shell-pairs
 PrismC was handed    13082727 working-precision words and  1275 shell-pairs
 PrismC was handed    13082727 working-precision words and  1275 shell-pairs
 PrismC was handed    13082727 working-precision words and  1275 shell-pairs
 PrismC was handed    13082727 working-precision words and  1275 shell-pairs
 PrismC was handed    13082727 working-precision words and  1275 shell-pairs
 PrismC was handed    13082727 working-precision words and  1275 shell-pairs
 PrismC was handed    13082727 working-precision words and  1275 shell-pairs
 PrismC was handed    13082727 working-precision words and  1275 shell-pairs
 PrismC was handed    13082727 working-precision words and  1275 shell-pairs
 PrismC was handed    13082727 working-precision words and  1275 shell-pairs
 WU=    0.000000   12.500000
 PrismC:  IPart=     0 DynPar=T LinDyn=F Incr=         254 UseFst=F UseS4=T IGathr=2.
 PrismC was handed    13082727 working-precision words and  1275 shell-pairs
 PrismC was handed    13082727 working-precision words and  1275 shell-pairs
 IPart=  6 NShTot=       23509 NShNF=       23509 NShFF=           0 NBatch=         301 AvBLen=        78.1
 IPart= 15 NShTot=       26503 NShNF=       26503 NShFF=           0 NBatch=         279 AvBLen=        95.0
 IPart= 12 NShTot=       27558 NShNF=       27558 NShFF=           0 NBatch=         239 AvBLen=       115.3
 IPart= 16 NShTot=       31830 NShNF=       31830 NShFF=           0 NBatch=         365 AvBLen=        87.2
 IPart= 23 NShTot=       39388 NShNF=       39388 NShFF=           0 NBatch=         424 AvBLen=        92.9
 IPart= 25 NShTot=       26051 NShNF=       26051 NShFF=           0 NBatch=         366 AvBLen=        71.2
 IPart= 11 NShTot=       31541 NShNF=       31541 NShFF=           0 NBatch=         383 AvBLen=        82.4
 IPart= 13 NShTot=       31721 NShNF=       31721 NShFF=           0 NBatch=         382 AvBLen=        83.0
 IPart=  5 NShTot=       28936 NShNF=       28936 NShFF=           0 NBatch=         413 AvBLen=        70.1
 IPart= 19 NShTot=       27560 NShNF=       27560 NShFF=           0 NBatch=         307 AvBLen=        89.8
 IPart= 17 NShTot=       28058 NShNF=       28058 NShFF=           0 NBatch=         417 AvBLen=        67.3
 IPart=  9 NShTot=       28702 NShNF=       28702 NShFF=           0 NBatch=         301 AvBLen=        95.4
 IPart= 30 NShTot=       34564 NShNF=       34564 NShFF=           0 NBatch=         379 AvBLen=        91.2
 IPart= 22 NShTot=       27984 NShNF=       27984 NShFF=           0 NBatch=         383 AvBLen=        73.1
 IPart=  3 NShTot=       29445 NShNF=       29445 NShFF=           0 NBatch=         382 AvBLen=        77.1
 IPart=  8 NShTot=       31614 NShNF=       31614 NShFF=           0 NBatch=         369 AvBLen=        85.7
 IPart= 29 NShTot=       24487 NShNF=       24487 NShFF=           0 NBatch=         313 AvBLen=        78.2
 IPart= 28 NShTot=       31342 NShNF=       31342 NShFF=           0 NBatch=         412 AvBLen=        76.1
 IPart= 24 NShTot=       31754 NShNF=       31754 NShFF=           0 NBatch=         315 AvBLen=       100.8
 IPart=  2 NShTot=       28479 NShNF=       28479 NShFF=           0 NBatch=         327 AvBLen=        87.1
 IPart= 10 NShTot=       28936 NShNF=       28936 NShFF=           0 NBatch=         322 AvBLen=        89.9
 IPart= 31 NShTot=       25252 NShNF=       25252 NShFF=           0 NBatch=         378 AvBLen=        66.8
 IPart= 18 NShTot=       30547 NShNF=       30547 NShFF=           0 NBatch=         309 AvBLen=        98.9
 IPart=  7 NShTot=        4450 NShNF=        4450 NShFF=           0 NBatch=          68 AvBLen=        65.4
 IPart= 27 NShTot=       28394 NShNF=       28394 NShFF=           0 NBatch=         364 AvBLen=        78.0
 IPart= 20 NShTot=       29244 NShNF=       29244 NShFF=           0 NBatch=         372 AvBLen=        78.6
 IPart=  4 NShTot=       29318 NShNF=       29318 NShFF=           0 NBatch=         314 AvBLen=        93.4
 IPart= 21 NShTot=        8368 NShNF=        8368 NShFF=           0 NBatch=          99 AvBLen=        84.5
 IPart= 26 NShTot=        4053 NShNF=        4053 NShFF=           0 NBatch=          67 AvBLen=        60.5
 IPart=  0 NShTot=        6663 NShNF=        6663 NShFF=           0 NBatch=          78 AvBLen=        85.4
 IPart= 14 NShTot=        9729 NShNF=        9729 NShFF=           0 NBatch=          94 AvBLen=       103.5
 IPart=  1 NShTot=        1016 NShNF=        1016 NShFF=           0 NBatch=          23 AvBLen=        44.2
 CoulSu:  NxtVal=         897129.
 ReadGW:  IGet=0 IStart=           1 Next=           1 LGW=           0.
 Remaining memory in FofDFT      399.95 Mw
 CkSvGd:  ISavGI=        -1 IRadAn=       5 IRASav=       5 ISavGd=        -1.
 CalDSu:  NPrtUS=  32 ThrOK=T IAlg=1 NPAlg=2 DoDPD=T LenP=       12090 LenD1P=             0.
 IPart=  0 IRanGd=          0 ScrnBf=T ScrnGd=T RCrit=4.00D+00 DoMicB=T.
 IPart=  9         3849 of         4132 points in       4 batches and        8 microbatches, Max-NSigAt=       5 Max-NSgAt2=       5
 IPart=  8         3204 of         3336 points in       3 batches and        8 microbatches, Max-NSigAt=       5 Max-NSgAt2=       5
 IPart= 15         3510 of         3764 points in       4 batches and       26 microbatches, Max-NSigAt=       5 Max-NSgAt2=       5
 IPart= 26         3067 of         3170 points in       3 batches and       20 microbatches, Max-NSigAt=       5 Max-NSgAt2=       5
 IPart=  7         3539 of         3940 points in       4 batches and       29 microbatches, Max-NSigAt=       5 Max-NSgAt2=       5
 IPart= 21         3444 of         3552 points in       3 batches and       12 microbatches, Max-NSigAt=       5 Max-NSgAt2=       5
 IPart= 12         3257 of         3568 points in       4 batches and       16 microbatches, Max-NSigAt=       5 Max-NSgAt2=       5
 IPart= 17         2322 of         2384 points in       2 batches and        8 microbatches, Max-NSigAt=       5 Max-NSgAt2=       5
 IPart= 24         2844 of         2964 points in       3 batches and       20 microbatches, Max-NSigAt=       5 Max-NSgAt2=       5
 IPart= 20         2822 of         2964 points in       3 batches and       22 microbatches, Max-NSigAt=       5 Max-NSgAt2=       5
 IPart= 23         1668 of         1784 points in       2 batches and       12 microbatches, Max-NSigAt=       5 Max-NSgAt2=       5
 IPart=  3         3677 of         4200 points in       5 batches and       44 microbatches, Max-NSigAt=       5 Max-NSgAt2=       5
 IPart=  6         3761 of         4172 points in       5 batches and       34 microbatches, Max-NSigAt=       5 Max-NSgAt2=       5
 IPart= 22         3244 of         3568 points in       4 batches and       32 microbatches, Max-NSigAt=       5 Max-NSgAt2=       5
 IPart= 16         3899 of         4382 points in       6 batches and       40 microbatches, Max-NSigAt=       5 Max-NSgAt2=       5
 IPart=  0         2885 of         2988 points in       3 batches and       14 microbatches, Max-NSigAt=       5 Max-NSgAt2=       5
 IPart= 29         2135 of         2388 points in       3 batches and       37 microbatches, Max-NSigAt=       5 Max-NSgAt2=       5
 IPart=  5         4816 of         5344 points in       6 batches and       28 microbatches, Max-NSigAt=       5 Max-NSgAt2=       5
 IPart=  1         4023 of         4200 points in       4 batches and       10 microbatches, Max-NSigAt=       5 Max-NSgAt2=       5
 IPart= 11         3564 of         3568 points in       3 batches and       10 microbatches, Max-NSigAt=       5 Max-NSgAt2=       5
 IPart= 14         2323 of         2584 points in       3 batches and       25 microbatches, Max-NSigAt=       5 Max-NSgAt2=       5
 IPart=  4         3858 of         4172 points in       4 batches and       14 microbatches, Max-NSigAt=       5 Max-NSgAt2=       5
 IPart= 10         3883 of         4144 points in       4 batches and       12 microbatches, Max-NSigAt=       5 Max-NSgAt2=       5
 IPart= 28         3520 of         3540 points in       3 batches and        9 microbatches, Max-NSigAt=       5 Max-NSgAt2=       5
 IPart=  2         4048 of         4454 points in       5 batches and       37 microbatches, Max-NSigAt=       5 Max-NSgAt2=       5
 IPart= 25         4341 of         4516 points in       4 batches and       11 microbatches, Max-NSigAt=       5 Max-NSgAt2=       5
 IPart= 18         3457 of         3540 points in       3 batches and       11 microbatches, Max-NSigAt=       5 Max-NSgAt2=       5
 IPart= 19         3452 of         3540 points in       3 batches and       11 microbatches, Max-NSigAt=       5 Max-NSgAt2=       5
 IPart= 13         4280 of         4804 points in       6 batches and       68 microbatches, Max-NSigAt=       5 Max-NSgAt2=       5
 IPart= 31         3755 of         3898 points in       3 batches and       30 microbatches, Max-NSigAt=       5 Max-NSgAt2=       5
 IPart= 27         2516 of         2642 points in       2 batches and        7 microbatches, Max-NSigAt=       5 Max-NSgAt2=       5
 IPart= 30         2360 of         2360 points in       2 batches and        8 microbatches, Max-NSigAt=       5 Max-NSgAt2=       5
 Forces at end of L703
 I=    0 X=   1.201185249550D-01 Y=   4.041264427316D-01 Z=   7.345015050784D-02
 I=    1 X=   3.798629507596D-03 Y=   1.280148786629D-02 Z=   2.322544551888D-03
 I=    2 X=   1.058050624489D-03 Y=   3.535538600102D-03 Z=  -6.228449350294D-04
 I=    3 X=  -7.803214237434D-05 Y=   3.540348856864D-03 Z=   1.225052220839D-03
 I=    4 X=   1.996888002619D-03 Y=   2.924983116630D-03 Z=   1.219666085827D-03
 I=    5 X=  -6.775535992331D-03 Y=  -2.280235843988D-02 Z=  -4.144417923528D-03
 FrcOut:
 IF    =    36 IFX   =    51 IFXYZ =    66
 IFFX  =    81 IFFFX =   201 IFLen =    15
 IFFLen=   120 IFFFLn=     0 IEDerv=   201
 LEDerv=   773 IFroze=  1163 ICStrt= 39591
 FCEst1:  Generated internal coordinate force constants:
                1             2             3             4             5 
      1  0.662579D+00
      2 -0.120071D+00  0.294372D+00
      3 -0.218010D-01 -0.734171D-01  0.684946D+00
      4 -0.100057D+00  0.106268D-01 -0.137726D-02  0.691110D-01
      5  0.106269D-01 -0.674898D-01 -0.461956D-02 -0.584509D-02  0.512010D-01
      6  0.000000D+00  0.000000D+00 -0.361033D+00  0.000000D+00  0.000000D+00
      7 -0.307380D+00  0.484165D-02  0.106158D+00  0.177357D-01  0.570482D-03
      8  0.729858D-03 -0.674845D-01  0.115610D-01  0.125170D-02  0.436406D-02
      9  0.104783D+00  0.945560D-02 -0.153710D+00  0.346373D-01  0.111413D-02
     10 -0.238319D+00  0.106574D+00 -0.826191D-01  0.129149D-01 -0.614742D-02
     11  0.110688D+00 -0.136518D+00  0.676822D-01 -0.682853D-02  0.918969D-02
     12 -0.826217D-01  0.651684D-01 -0.153745D+00 -0.284019D-01  0.198535D-01
     13 -0.168235D-01 -0.197169D-02 -0.360172D-03  0.295657D-03  0.795121D-03
     14 -0.197355D-02 -0.228800D-01 -0.120656D-02  0.795105D-03  0.273498D-02
     15 -0.360619D-03 -0.120694D-02 -0.164578D-01 -0.485812D-02 -0.163481D-01
                6             7             8             9            10 
      6  0.361033D+00
      7  0.000000D+00  0.300394D+00
      8  0.000000D+00 -0.266308D-02  0.511988D-01
      9  0.000000D+00 -0.118425D+00 -0.520092D-02  0.129752D+00
     10  0.000000D+00 -0.884066D-02  0.148707D-01 -0.172655D-01  0.228443D+00
     11  0.000000D+00 -0.311133D-02  0.918796D-02 -0.607633D-02 -0.112935D+00
     12  0.000000D+00  0.111386D-01 -0.145185D-01  0.217534D-01  0.963734D-01
     13  0.000000D+00 -0.190974D-02 -0.141891D-01 -0.372967D-02  0.580115D-02
     14  0.000000D+00  0.362275D-03  0.273372D-02  0.707512D-03 -0.236206D-02
     15  0.000000D+00  0.112921D-02  0.815843D-02  0.220531D-02  0.351122D-02
               11            12            13            14            15 
     11  0.123116D+00
     12 -0.690588D-01  0.129785D+00
     13  0.121875D-01  0.351154D-02  0.126364D-01
     14 -0.497626D-02 -0.144459D-02  0.317823D-02  0.223876D-01
     15  0.745294D-02  0.220679D-02  0.578303D-03  0.194364D-02  0.120457D-01
 Quadrupole    = 4.81069802D-01-1.05544400D+00 5.74374203D-01
                -5.00943339D-01-9.09470776D-02-3.06368688D-01
 -------------------------------------------------------------------
 Center     Atomic                   Forces (Hartrees/Bohr)
 Number     Number              X              Y              Z
 -------------------------------------------------------------------
      1        6          -0.003798630   -0.012801488   -0.002322545
      2        1          -0.001058051   -0.003535539    0.000622845
      3        1           0.000078032   -0.003540349   -0.001225052
      4        1          -0.001996888   -0.002924983   -0.001219666
      5        1           0.006775536    0.022802358    0.004144418
 -------------------------------------------------------------------
 Cartesian Forces:  Max     0.022802358 RMS     0.007343081
 From PutF, contents of force:
   1    0.6228449350D-03
   2    0.6277948047D-03
   3    0.6225670651D-03
   4    0.2151060662D-02
   5    0.2144156340D-02
   6   -0.6426493896D-02
   7    0.2244216252D-05
   8   -0.5013246296D-06
   9   -0.2414604808D-01
 -----------------------------------------------------------------------------------------------
                       Internal Coordinate Forces (Hartree/Bohr or radian)
  Cent   Atom   N1       Length/X         N2         Alpha/Y        N3         Beta/Z          J
 -----------------------------------------------------------------------------------------------
      1  C 
      2  H        1   0.000623(     1)
      3  H        1   0.000628(     2)      2   0.002151(     5)
      4  H        1   0.000623(     3)      2   0.002144(     6)      3  -0.006426(     8)     0
      5  H        1  -0.024146(     4)      2  -0.000001(     7)      3   0.000002(     9)     0
 -----------------------------------------------------------------------------------------------
 Internal  Forces:  Max     0.024146048 RMS     0.008397920
 Force constants in Cartesian coordinates: 
                1             2             3             4             5 
      1  0.662579D+00
      2 -0.120071D+00  0.294372D+00
      3 -0.218010D-01 -0.734171D-01  0.684946D+00
      4 -0.100057D+00  0.106268D-01 -0.137726D-02  0.691110D-01
      5  0.106269D-01 -0.674898D-01 -0.461956D-02 -0.584509D-02  0.512010D-01
      6  0.000000D+00  0.000000D+00 -0.361033D+00  0.000000D+00  0.000000D+00
      7 -0.307380D+00  0.484165D-02  0.106158D+00  0.177357D-01  0.570482D-03
      8  0.729858D-03 -0.674845D-01  0.115610D-01  0.125170D-02  0.436406D-02
      9  0.104783D+00  0.945560D-02 -0.153710D+00  0.346373D-01  0.111413D-02
     10 -0.238319D+00  0.106574D+00 -0.826191D-01  0.129149D-01 -0.614742D-02
     11  0.110688D+00 -0.136518D+00  0.676822D-01 -0.682853D-02  0.918969D-02
     12 -0.826217D-01  0.651684D-01 -0.153745D+00 -0.284019D-01  0.198535D-01
     13 -0.168235D-01 -0.197169D-02 -0.360172D-03  0.295657D-03  0.795121D-03
     14 -0.197355D-02 -0.228800D-01 -0.120656D-02  0.795105D-03  0.273498D-02
     15 -0.360619D-03 -0.120694D-02 -0.164578D-01 -0.485812D-02 -0.163481D-01
                6             7             8             9            10 
      6  0.361033D+00
      7  0.000000D+00  0.300394D+00
      8  0.000000D+00 -0.266308D-02  0.511988D-01
      9  0.000000D+00 -0.118425D+00 -0.520092D-02  0.129752D+00
     10  0.000000D+00 -0.884066D-02  0.148707D-01 -0.172655D-01  0.228443D+00
     11  0.000000D+00 -0.311133D-02  0.918796D-02 -0.607633D-02 -0.112935D+00
     12  0.000000D+00  0.111386D-01 -0.145185D-01  0.217534D-01  0.963734D-01
     13  0.000000D+00 -0.190974D-02 -0.141891D-01 -0.372967D-02  0.580115D-02
     14  0.000000D+00  0.362275D-03  0.273372D-02  0.707512D-03 -0.236206D-02
     15  0.000000D+00  0.112921D-02  0.815843D-02  0.220531D-02  0.351122D-02
               11            12            13            14            15 
     11  0.123116D+00
     12 -0.690588D-01  0.129785D+00
     13  0.121875D-01  0.351154D-02  0.126364D-01
     14 -0.497626D-02 -0.144459D-02  0.317823D-02  0.223876D-01
     15  0.745294D-02  0.220679D-02  0.578303D-03  0.194364D-02  0.120457D-01
 FCInt: Cartesian first derivatives: 
                 1             2             3             4             5 
      1   0.000000D+00  0.000000D+00  0.000000D+00  0.000000D+00  0.000000D+00
      2   0.000000D+00  0.000000D+00  0.000000D+00  0.000000D+00  0.000000D+00
      3   0.000000D+00  0.000000D+00  0.000000D+00  0.000000D+00  0.000000D+00
 FCInt: Cartesian force constants: 
                1             2             3             4             5 
      1  0.662579D+00
      2 -0.120071D+00  0.294372D+00
      3 -0.218010D-01 -0.734171D-01  0.684946D+00
      4 -0.100057D+00  0.106268D-01 -0.137726D-02  0.691110D-01
      5  0.106269D-01 -0.674898D-01 -0.461956D-02 -0.584509D-02  0.512010D-01
      6  0.000000D+00  0.000000D+00 -0.361033D+00  0.000000D+00  0.000000D+00
      7 -0.307380D+00  0.484165D-02  0.106158D+00  0.177357D-01  0.570482D-03
      8  0.729858D-03 -0.674845D-01  0.115610D-01  0.125170D-02  0.436406D-02
      9  0.104783D+00  0.945560D-02 -0.153710D+00  0.346373D-01  0.111413D-02
     10 -0.238319D+00  0.106574D+00 -0.826191D-01  0.129149D-01 -0.614742D-02
     11  0.110688D+00 -0.136518D+00  0.676822D-01 -0.682853D-02  0.918969D-02
     12 -0.826217D-01  0.651684D-01 -0.153745D+00 -0.284019D-01  0.198535D-01
     13 -0.168235D-01 -0.197169D-02 -0.360172D-03  0.295657D-03  0.795121D-03
     14 -0.197355D-02 -0.228800D-01 -0.120656D-02  0.795105D-03  0.273498D-02
     15 -0.360619D-03 -0.120694D-02 -0.164578D-01 -0.485812D-02 -0.163481D-01
                6             7             8             9            10 
      6  0.361033D+00
      7  0.000000D+00  0.300394D+00
      8  0.000000D+00 -0.266308D-02  0.511988D-01
      9  0.000000D+00 -0.118425D+00 -0.520092D-02  0.129752D+00
     10  0.000000D+00 -0.884066D-02  0.148707D-01 -0.172655D-01  0.228443D+00
     11  0.000000D+00 -0.311133D-02  0.918796D-02 -0.607633D-02 -0.112935D+00
     12  0.000000D+00  0.111386D-01 -0.145185D-01  0.217534D-01  0.963734D-01
     13  0.000000D+00 -0.190974D-02 -0.141891D-01 -0.372967D-02  0.580115D-02
     14  0.000000D+00  0.362275D-03  0.273372D-02  0.707512D-03 -0.236206D-02
     15  0.000000D+00  0.112921D-02  0.815843D-02  0.220531D-02  0.351122D-02
               11            12            13            14            15 
     11  0.123116D+00
     12 -0.690588D-01  0.129785D+00
     13  0.121875D-01  0.351154D-02  0.126364D-01
     14 -0.497626D-02 -0.144459D-02  0.317823D-02  0.223876D-01
     15  0.745294D-02  0.220679D-02  0.578303D-03  0.194364D-02  0.120457D-01
 Internal force constants: 
                1             2             3             4             5 
      1  0.361033D+00
      2  0.000000D+00  0.361033D+00
      3  0.000000D+00  0.000000D+00  0.361033D+00
      4  0.000000D+00  0.000000D+00  0.000000D+00  0.236853D-01
      5  0.000000D+00  0.000000D+00  0.000000D+00  0.000000D+00  0.287397D+00
      6  0.000000D+00  0.000000D+00  0.000000D+00  0.000000D+00  0.114183D+00
      7  0.000000D+00  0.000000D+00  0.000000D+00  0.000000D+00  0.232592D-01
      8  0.000000D+00  0.000000D+00  0.000000D+00  0.000000D+00  0.603805D-01
      9  0.000000D+00  0.000000D+00  0.000000D+00  0.000000D+00 -0.386590D-01
                6             7             8             9 
      6  0.287402D+00
      7  0.232764D-01  0.240505D+00
      8  0.216132D-01 -0.681868D-01  0.168651D+00
      9  0.386706D-01  0.142201D-04 -0.116596D+00  0.233412D+00
 Frcnst in PutFF: 
                1             2             3             4             5 
      1  0.361033D+00
      2  0.000000D+00  0.361033D+00
      3  0.000000D+00  0.000000D+00  0.361033D+00
      4  0.000000D+00  0.000000D+00  0.000000D+00  0.287397D+00
      5  0.000000D+00  0.000000D+00  0.000000D+00  0.114183D+00  0.287402D+00
      6  0.000000D+00  0.000000D+00  0.000000D+00  0.603805D-01  0.216132D-01
      7  0.000000D+00  0.000000D+00  0.000000D+00 -0.386590D-01  0.386706D-01
      8  0.000000D+00  0.000000D+00  0.000000D+00  0.232592D-01  0.232764D-01
      9  0.000000D+00  0.000000D+00  0.000000D+00  0.000000D+00  0.000000D+00
                6             7             8             9 
      6  0.168651D+00
      7 -0.116596D+00  0.233412D+00
      8 -0.681868D-01  0.142201D-04  0.240505D+00
      9  0.000000D+00  0.000000D+00  0.000000D+00  0.236853D-01
 Force constants in internal coordinates: 
                1             2             3             4             5 
      1  0.361033D+00
      2  0.000000D+00  0.361033D+00
      3  0.000000D+00  0.000000D+00  0.361033D+00
      4  0.000000D+00  0.000000D+00  0.000000D+00  0.236853D-01
      5  0.000000D+00  0.000000D+00  0.000000D+00  0.000000D+00  0.287397D+00
      6  0.000000D+00  0.000000D+00  0.000000D+00  0.000000D+00  0.114183D+00
      7  0.000000D+00  0.000000D+00  0.000000D+00  0.000000D+00  0.232592D-01
      8  0.000000D+00  0.000000D+00  0.000000D+00  0.000000D+00  0.603805D-01
      9  0.000000D+00  0.000000D+00  0.000000D+00  0.000000D+00 -0.386590D-01
                6             7             8             9 
      6  0.287402D+00
      7  0.232764D-01  0.240505D+00
      8  0.216132D-01 -0.681868D-01  0.168651D+00
      9  0.386706D-01  0.142201D-04 -0.116596D+00  0.233412D+00
 Final forces over variables, Energy=-4.03544461D+01:
  6.22844935D-04 6.27794805D-04 6.22567065D-04 2.15106066D-03
  2.14415634D-03-6.42649390D-03 2.24421625D-06-5.01324630D-07
 -2.41460481D-02

 GradGradGradGradGradGradGradGradGradGradGradGradGradGradGradGradGradGrad
 Berny optimization.
 Search for a local minimum.
 Step number   1 out of a maximum of   50
 All quantities printed in internal units (Hartrees-Bohrs-Radians)
 Second derivative matrix not updated -- first step.
 The second derivative matrix:
                          R1        R2        R3        A2        A3
           R1           0.36103
           R2           0.00000   0.36103
           R3           0.00000   0.00000   0.36103
           A2           0.00000   0.00000   0.00000   0.28740
           A3           0.00000  -0.00000  -0.00000   0.11418   0.28740
           D3           0.00000  -0.00000   0.00000   0.06038   0.02161
           DH1          0.00000   0.00000  -0.00000  -0.03866   0.03867
           ANG1         0.00000  -0.00000  -0.00000   0.02326   0.02328
           BB           0.00000  -0.00000   0.00000   0.00000   0.00000
                          D3        DH1      ANG1       BB
           D3           0.16865
           DH1         -0.11660   0.23341
           ANG1        -0.06819   0.00001   0.24051
           BB          -0.00000   0.00000   0.00000   0.02369
 ITU=  0
     Eigenvalues ---    0.05338   0.14842   0.24331   0.34987   0.36103
     Eigenvalues ---    0.36103   0.36103   0.422391000.00000
 RFO step:  Lambda=-6.24436205D-04 EMin= 5.33794000D-02
 Linear search not attempted -- first point.
 Variable       Old X    -DE/DX   Delta X   Delta X   Delta X     New X
                                 (Linear)    (Quad)   (Total)
    R1        2.03920   0.00062   0.00000   0.00172   0.00172   2.04093
    R2        2.03920   0.00063   0.00000   0.00174   0.00174   2.04094
    R3        2.03920   0.00062   0.00000   0.00172   0.00172   2.04092
    A2        2.04403   0.00215   0.00000   0.01580   0.01580   2.05983
    A3        2.04417   0.00214   0.00000   0.01562   0.01562   2.05979
    D3        3.71950  -0.00643   0.00000  -0.08618  -0.08618   3.63333
   DH1        1.85965   0.00000   0.00000  -0.04289  -0.04289   1.81676
   ANG1       1.74329  -0.00000   0.00000  -0.02740  -0.02740   1.71589
    BB        4.53534  -0.02415   0.00000   0.00000   0.00000   4.53534
         Item               Value     Threshold  Converged?
 Maximum Force            0.006426     0.000450     NO 
 RMS     Force            0.002542     0.000300     NO 
 Maximum Displacement     0.086176     0.001800     NO 
 RMS     Displacement     0.034188     0.001200     NO 
 Predicted change in Energy=-3.155021D-04
 GradGradGradGradGradGradGradGradGradGradGradGradGradGradGradGradGradGrad

 ---------------------------------------------------------------------------------------------------
                            Z-MATRIX (ANGSTROMS AND DEGREES)
   CD    Cent   Atom    N1       Length/X        N2       Alpha/Y        N3        Beta/Z          J
 ---------------------------------------------------------------------------------------------------
      1      1  C 
      2      2  H        1   1.080011(     1)
      3      3  H        1   1.080019(     2)      2  118.019(     5)
      4      4  H        1   1.080011(     3)      2  118.017(     6)      3  208.174(     8)      0
      5      5  H        1   2.400000(     4)      2   98.313(     7)      3  104.093(     9)      0
 ---------------------------------------------------------------------------------------------------
                         Z-Matrix orientation:                         
 ---------------------------------------------------------------------
 Center     Atomic      Atomic             Coordinates (Angstroms)
 Number     Number       Type             X           Y           Z
 ---------------------------------------------------------------------
      1          6           0        0.000000    0.000000    0.000000
      2          1           0        0.000000    0.000000    1.080011
      3          1           0        0.953428    0.000000   -0.507361
      4          1           0       -0.840472    0.450174   -0.507320
      5          1           0       -0.578232   -2.303311   -0.346993
 ---------------------------------------------------------------------
                    Distance matrix (angstroms):
                    1          2          3          4          5
     1  C    0.000000
     2  H    1.080011   0.000000
     3  H    1.080019   1.851695   0.000000
     4  H    1.080011   1.851667   1.849523   0.000000
     5  H    2.400000   2.770548   2.770730   2.770588   0.000000
 Symmetry turned off by external request.
 Stoichiometry    CH4
 Framework group  C1[X(CH4)]
 Deg. of freedom     9
 Full point group                 C1      NOp   1
 Rotational constants (GHZ):    146.3648683     68.6068842     68.5569224
 Standard basis: Aug-CC-pVTZ (5D, 7F)
   138 basis functions,   180 primitive gaussians,   155 cartesian basis functions
     5 alpha electrons        5 beta electrons
       nuclear repulsion energy        11.5731189474 Hartrees.
 NAtoms=    5 NActive=    5 NUniq=    5 SFac= 1.00D+00 NAtFMM=   60 NAOKFM=F Big=F
 Integral buffers will be    131072 words long.
 Raffenetti 2 integral format.
 Two-electron integral symmetry is turned off.
 Nuclear repulsion after empirical dispersion term =       11.5724454937 Hartrees.
 One-electron integrals computed using PRISM.
 NBasis=   138 RedAO= T EigKep=  1.05D-04  NBF=   138
 NBsUse=   138 1.00D-06 EigRej= -1.00D+00 NBFU=   138
 ExpMin= 2.53D-02 ExpMax= 8.24D+03 ExpMxC= 2.81D+02 IAcc=3 IRadAn=         5 AccDes= 0.00D+00
 Harris functional with IExCor= 4639 and IRadAn=       5 diagonalized for initial guess.
 HarFok:  IExCor= 4639 AccDes= 0.00D+00 IRadAn=         5 IDoV= 1 UseB2=F ITyADJ=14
 ICtDFT=  3500011 ScaDFX=  1.000000  1.000000  1.000000  1.000000
 FoFCou: FMM=F IPFlag=           0 FMFlag=      100000 FMFlg1=           0
         NFxFlg=           0 DoJE=T BraDBF=F KetDBF=T FulRan=T
         wScrn=  0.000000 ICntrl=     500 IOpCl=  0 I1Cent=   200000004 NGrid=           0
         NMat0=    1 NMatS0=      1 NMatT0=    0 NMatD0=    1 NMtDS0=    0 NMtDT0=    0
 Symmetry not used in FoFCou.
 Mixing orbitals, IMix= 1 IMixAn=  0 NRI=1 NE=    5 Coef=  7.07106781D-01  7.07106781D-01
 Mixing orbitals, IMix= 1 IMixAn=  0 NRI=1 NE=    5 Coef= -7.07106781D-01  7.07106781D-01
 Initial guess <Sx>= 0.0000 <Sy>= 0.0000 <Sz>= 0.0000 <S**2>= 1.0000 S= 0.6180
 Keep R1 and R2 ints in memory in canonical form, NReq=186089785.
 Requested convergence on RMS density matrix=1.00D-08 within 128 cycles.
 Requested convergence on MAX density matrix=1.00D-06.
 Requested convergence on             energy=1.00D-06.
 No special actions if energy rises.
 SCF Done:  E(UwB97XD) =  -40.3549441216     A.U. after   15 cycles
            NFock= 15  Conv=0.30D-08     -V/T= 2.0098
 <Sx>= 0.0000 <Sy>= 0.0000 <Sz>= 0.0000 <S**2>= 0.6490 S= 0.4481
 <L.S>=  0.00000000000    
 Annihilation of the first spin contaminant:
 S**2 before annihilation     0.6490,   after     0.0096
 DipInt: DoE/N= T T RetVal/Mat= T F Init=T NMatP=  1 IDeriv=0 Min/MaxMlt=  1  1
 Entering OneElI...
 Multipole integrals L=1 to 1 MinM= 0 MaxM= 0.
 Requested accuracy = 0.1000D-12
 PrsmSu:  NPrtUS=   1 ThrOK=F IAlg=1 NPAlg=1 LenDen=           0.
 Prism:   IPart=     0 DynPar=F LinDyn=F Incr=          12.
 PRISM was handed   419323360 working-precision words and  1275 shell-pairs
 IPart=  0 NShTot=        1275 NBatch=          39 AvBLen=        32.7
 PrSmSu:  NxtVal=             13.
 Entering OneElI...
 Calculate overlap and kinetic energy integrals
    NBasis = 155  MinDer = 1  MaxDer = 1
 Requested accuracy = 0.1000D-12
 PrsmSu:  NPrtUS=  32 ThrOK=T IAlg=1 NPAlg=1 LenDen=           0.
 Prism:   IPart=     0 DynPar=F LinDyn=F Incr=           1.
 PRISM was handed    13082626 working-precision words and  1275 shell-pairs
 PRISM was handed    13082626 working-precision words and  1275 shell-pairs
 PRISM was handed    13082626 working-precision words and  1275 shell-pairs
 PRISM was handed    13082626 working-precision words and  1275 shell-pairs
 PRISM was handed    13082626 working-precision words and  1275 shell-pairs
 PRISM was handed    13082626 working-precision words and  1275 shell-pairs
 PRISM was handed    13082626 working-precision words and  1275 shell-pairs
 PRISM was handed    13082626 working-precision words and  1275 shell-pairs
 PRISM was handed    13082626 working-precision words and  1275 shell-pairs
 PRISM was handed    13082626 working-precision words and  1275 shell-pairs
 PRISM was handed    13082626 working-precision words and  1275 shell-pairs
 PRISM was handed    13082626 working-precision words and  1275 shell-pairs
[...]
 Charge=             -0.0000 electrons
 Dipole moment (field-independent basis, Debye):
    X=              0.1554    Y=              1.0024    Z=              0.0910  Tot=              1.0184
 Quadrupole moment (field-independent basis, Debye-Ang):
   XX=             -8.7274   YY=            -11.5516   ZZ=             -8.6807
   XY=             -0.4499   XZ=             -0.0410   YZ=             -0.2638
 Traceless Quadrupole moment (field-independent basis, Debye-Ang):
   XX=              0.9258   YY=             -1.8984   ZZ=              0.9725
   XY=             -0.4499   XZ=             -0.0410   YZ=             -0.2638
 Octapole moment (field-independent basis, Debye-Ang**2):
  XXX=              1.8962  YYY=             13.1203  ZZZ=              2.0517  XYY=              0.7676
  XXY=              4.0994  XXZ=             -0.5870  XZZ=              0.6055  YZZ=              3.9145
  YYZ=              0.4493  XYZ=              0.1653
 Hexadecapole moment (field-independent basis, Debye-Ang**3):
 XXXX=            -18.1443 YYYY=            -69.2477 ZZZZ=            -17.2539 XXXY=             -4.1569
 XXXZ=             -0.4331 YYYX=             -3.9387 YYYZ=             -2.3043 ZZZX=             -0.3588
 ZZZY=             -2.3209 XXYY=            -14.7694 XXZZ=             -5.9299 YYZZ=            -14.6946
 XXYZ=             -0.9243 YYXZ=             -0.0662 ZZXY=             -1.3888
 N-N= 1.159249224486D+01 E-N=-1.158970428711D+02  KE= 3.997185251364D+01
  Exact polarizability:  21.506   4.160  47.706   0.374   2.422  21.078
 Approx polarizability:  18.921   2.483  34.606   0.224   1.453  18.669
                          Isotropic Fermi Contact Couplings
        Atom                 a.u.       MegaHertz       Gauss      10(-4) cm-1
     1  C(13)              0.01315       7.39353       2.63819       2.46622
     2  H(1)              -0.01122     -25.08650      -8.95149      -8.36796
     3  H(1)              -0.01123     -25.08846      -8.95219      -8.36861
     4  H(1)              -0.01122     -25.07962      -8.94903      -8.36566
     5  H(1)              -0.24210    -541.08971    -193.07426    -180.48810
 --------------------------------------------------------
       Center         ----  Spin Dipole Couplings  ----
                      3XX-RR        3YY-RR        3ZZ-RR
 --------------------------------------------------------
     1   Atom       -0.415788      0.852307     -0.436520
     2   Atom       -0.055056     -0.006526      0.061581
     3   Atom        0.032981     -0.006522     -0.026458
     4   Atom        0.030272     -0.003803     -0.026469
     5   Atom       -0.013276      0.027203     -0.013927
 --------------------------------------------------------
                        XY            XZ            YZ
 --------------------------------------------------------
     1   Atom        0.202472      0.018506      0.118783
     2   Atom        0.007760     -0.000964     -0.006244
     3   Atom       -0.001663     -0.050184      0.009823
     4   Atom       -0.010075      0.050790     -0.005914
     5   Atom        0.006404      0.000578      0.003744
 --------------------------------------------------------


 ---------------------------------------------------------------------------------
              Anisotropic Spin Dipole Couplings in Principal Axis System
 ---------------------------------------------------------------------------------

       Atom             a.u.   MegaHertz   Gauss  10(-4) cm-1        Axes

              Baa    -0.4474   -60.034   -21.421   -20.025 -0.0278 -0.0867  0.9958
     1 C(13)  Bbb    -0.4473   -60.028   -21.419   -20.023  0.9878 -0.1552  0.0141
              Bcc     0.8947   120.061    42.841    40.048  0.1533  0.9841  0.0899
 
              Baa    -0.0563   -30.021   -10.712   -10.014  0.9880 -0.1542 -0.0001
     2 H(1)   Bbb    -0.0059    -3.151    -1.124    -1.051  0.1535  0.9837  0.0932
              Bcc     0.0622    33.172    11.837    11.065 -0.0143 -0.0921  0.9956
 
              Baa    -0.0563   -30.021   -10.712   -10.014  0.4821 -0.1542  0.8624
     3 H(1)   Bbb    -0.0059    -3.149    -1.124    -1.051  0.1563  0.9837  0.0885
              Bcc     0.0622    33.170    11.836    11.064  0.8621 -0.0921 -0.4983
 
              Baa    -0.0563   -30.026   -10.714   -10.015 -0.5061  0.0000  0.8625
     4 H(1)   Bbb    -0.0059    -3.133    -1.118    -1.045  0.1504  0.9847  0.0883
              Bcc     0.0621    33.159    11.832    11.061  0.8492 -0.1744  0.4984
 
              Baa    -0.0143    -7.611    -2.716    -2.539  0.9515 -0.1701  0.2564
     5 H(1)   Bbb    -0.0143    -7.611    -2.716    -2.539 -0.2675 -0.0456  0.9625
              Bcc     0.0285    15.222     5.432     5.078  0.1520  0.9844  0.0889
 

 ---------------------------------------------------------------------------------

 Calling FoFJK, ICntrl=    100127 FMM=F ISym2X=0 I1Cent= 0 IOpClX= 1 NMat=1 NMatS=1 NMatT=0.
 Full mass-weighted force constant matrix:
 Low frequencies --- -977.5933   -0.0010   -0.0009   -0.0006   25.3845  290.8427
 Low frequencies ---  296.0688  529.6778  531.5189
 ******    1 imaginary frequencies (negative Signs) ****** 
 Diagonal vibrational polarizability:
        0.1765747       3.2930751       0.1241510
 Harmonic frequencies (cm**-1), IR intensities (KM/Mole), Raman scattering
 activities (A**4/AMU), depolarization ratios for plane and unpolarized
 incident light, reduced masses (AMU), force constants (mDyne/A),
 and normal coordinates:
                      1                      2                      3
                      A                      A                      A
 Frequencies --   -977.5921               509.4869               512.7881
 Red. masses --      1.0999                 1.0311                 1.0311
 Frc consts  --      0.6193                 0.1577                 0.1598
 IR Inten    --   84.97                 0.4842                 0.4712    
  Atom  AN      X      Y      Z        X      Y      Z        X      Y      Z
     1   6    -0.01  -0.09  -0.01     0.05  -0.01  -0.00    -0.00  -0.00   0.05
     2   1     0.01   0.03  -0.01    -0.03   0.00  -0.00     0.11   0.70   0.05
     3   1    -0.00   0.03   0.01     0.08   0.62   0.05    -0.06  -0.35  -0.06
     4   1     0.01   0.03   0.01    -0.11  -0.60  -0.05    -0.05  -0.36  -0.06
     5   1     0.15   0.98   0.09    -0.48   0.07   0.00     0.00   0.04  -0.48
                      4                      5                      6
                      A                      A                      A
 Frequencies --    776.8050              1417.2164              1417.9288
 Red. masses --      1.1790                 1.0984                 1.0984
 Frc consts  --      0.4192                 1.2999                 1.3012
 IR Inten    --   22.45                  3.555                  3.554    
  Atom  AN      X      Y      Z        X      Y      Z        X      Y      Z
     1   6     0.02   0.12   0.01    -0.08   0.02  -0.04    -0.04  -0.00   0.08
     2   1    -0.09  -0.56   0.00     0.71  -0.07  -0.03     0.36  -0.13   0.07
     3   1    -0.04  -0.55  -0.08     0.30  -0.06   0.61    -0.26   0.13  -0.33
     4   1    -0.13  -0.54  -0.08    -0.07  -0.06  -0.07     0.41   0.00  -0.69
     5   1     0.03   0.19   0.02    -0.01   0.00  -0.00    -0.00  -0.00   0.01
                      7                      8                      9
                      A                      A                      A
 Frequencies --   3128.1373              3307.8055              3307.9476
 Red. masses --      1.0093                 1.1183                 1.1183
 Frc consts  --      5.8189                 7.2090                 7.2097
 IR Inten    --  0.7546                 0.8579                 0.8527    
  Atom  AN      X      Y      Z        X      Y      Z        X      Y      Z
     1   6    -0.00  -0.01  -0.00     0.08  -0.02   0.05    -0.06   0.00   0.08
     2   1    -0.00  -0.01   0.58     0.01   0.00  -0.44    -0.01   0.00  -0.68
     3   1     0.50  -0.01  -0.28    -0.32  -0.00   0.19     0.63  -0.00  -0.35
     4   1    -0.48   0.15  -0.28    -0.68   0.21  -0.40     0.03  -0.01   0.03
     5   1     0.00   0.00   0.00    -0.00   0.00  -0.00     0.00  -0.00  -0.00

 -------------------
 - Thermochemistry -
 -------------------
 Temperature   298.150 Kelvin.  Pressure   1.00000 Atm.
 Atom     1 has atomic number  6 and mass  12.00000
 Atom     2 has atomic number  1 and mass   1.00783
 Atom     3 has atomic number  1 and mass   1.00783
 Atom     4 has atomic number  1 and mass   1.00783
 Atom     5 has atomic number  1 and mass   1.00783
 Molecular mass:    16.03130 amu.
 Principal axes and moments of inertia in atomic units:
                           1         2         3
     Eigenvalues --    12.45454  26.05194  26.05325
           X            0.15176  -0.08364   0.98487
           Y            0.98443  -0.07662  -0.15820
           Z            0.08869   0.99355   0.07071
 This molecule is an asymmetric top.
 Rotational symmetry number  1.
 Rotational temperatures (Kelvin)      6.95440     3.32466     3.32449
 Rotational constants (GHZ):         144.90627    69.27474    69.27126
    1 imaginary frequencies ignored.
 Zero-point vibrational energy      86000.2 (Joules/Mol)
                                   20.55455 (Kcal/Mol)
 Warning -- explicit consideration of   2 degrees of freedom as
           vibrations may cause significant error
 Vibrational temperatures:    733.04   737.79  1117.65  2039.06  2040.08
          (Kelvin)           4500.69  4759.19  4759.39
 
 Zero-point correction=                           0.032756 (Hartree/Particle)
 Thermal correction to Energy=                    0.036120
 Thermal correction to Enthalpy=                  0.037064
 Thermal correction to Gibbs Free Energy=         0.012086
 Sum of electronic and zero-point Energies=            -40.322565
 Sum of electronic and thermal Energies=               -40.319201
 Sum of electronic and thermal Enthalpies=             -40.318257
 Sum of electronic and thermal Free Energies=          -40.343235
 
                     E (Thermal)             CV                S
                      KCal/Mol        Cal/Mol-Kelvin    Cal/Mol-Kelvin
 Total                   22.665              9.302             52.571
 Electronic               0.000              0.000              0.000
 Translational            0.889              2.981             34.261
 Rotational               0.889              2.981             16.787
 Vibrational             20.888              3.340              1.522
 Vibration     1          0.865              1.229              0.635
 Vibration     2          0.868              1.222              0.627
                       Q            Log10(Q)             Ln(Q)
 Total Bot       0.276071D-05         -5.558980        -12.800024
 Total V=0       0.321803D+10          9.507591         21.892036
 Vib (Bot)       0.105136D-14        -14.978249        -34.488694
 Vib (Bot)    1  0.319860D+00         -0.495041         -1.139873
 Vib (Bot)    2  0.316853D+00         -0.499142         -1.149316
 Vib (V=0)       0.122552D+01          0.088321          0.203367
 Vib (V=0)    1  0.109356D+01          0.038841          0.089436
 Vib (V=0)    2  0.109194D+01          0.038200          0.087958
 Electronic      0.100000D+01          0.000000          0.000000
 Translational   0.252295D+07          6.401908         14.740939
 Rotational      0.104079D+04          3.017361          6.947731
 -------------------------------------------------------------------
 Center     Atomic                   Forces (Hartrees/Bohr)
 Number     Number              X              Y              Z
 -------------------------------------------------------------------
      1        6          -0.003473785   -0.022529369   -0.002064169
      2        1           0.000005898    0.000019523    0.000007356
      3        1          -0.000004670    0.000009311    0.000014975
      4        1           0.000001173   -0.000015930    0.000010851
      5        1           0.003471385    0.022516465    0.002030987
 -------------------------------------------------------------------
 Cartesian Forces:  Max     0.022529369 RMS     0.008354912
 -----------------------------------------------------------------------------------------------
                       Internal Coordinate Forces (Hartree/Bohr or radian)
  Cent   Atom   N1       Length/X         N2         Alpha/Y        N3         Beta/Z          J
 -----------------------------------------------------------------------------------------------
      1  C 
      2  H        1   0.000007(     1)
      3  H        1  -0.000011(     2)      2  -0.000022(     5)
      4  H        1  -0.000010(     3)      2  -0.000013(     6)      3  -0.000026(     8)     0
      5  H        1  -0.022873(     4)      2   0.000029(     7)      3   0.000048(     9)     0
 -----------------------------------------------------------------------------------------------
 Internal  Forces:  Max     0.022872833 RMS     0.007624312

 GradGradGradGradGradGradGradGradGradGradGradGradGradGradGradGradGradGrad
 Berny optimization.
 Search for a local minimum.
 Step number   1 out of a maximum of    2
 All quantities printed in internal units (Hartrees-Bohrs-Radians)
 Second derivative matrix not updated -- analytic derivatives used.
 The second derivative matrix:
                          R1        R2        R3        A2        A3
           R1           0.37271
           R2          -0.00009   0.37274
           R3          -0.00008  -0.00007   0.37270
           A2           0.01545   0.00086  -0.01494   0.18622
           A3           0.01545  -0.01495   0.00081   0.08805   0.18661
           D3           0.00054  -0.00355  -0.00455   0.02405   0.01934
           DH1         -0.00000  -0.00090   0.00089  -0.00490   0.00491
           ANG1        -0.00105   0.00052   0.00052  -0.00032  -0.00030
           BB          -0.00059  -0.00058  -0.00058  -0.00102  -0.00101
                          D3        DH1      ANG1       BB
           D3           0.03735
           DH1         -0.01963   0.03918
           ANG1        -0.01184  -0.00002   0.03974
           BB           0.00562  -0.00002   0.00017  -0.03228
 ITU=  0
     Eigenvalues ---    0.01340   0.03938   0.05815   0.09879   0.27160
     Eigenvalues ---    0.37262   0.37371   0.379621000.00000
 Angle between quadratic step and forces=  43.87 degrees.
 Linear search not attempted -- first point.
 Variable       Old X    -DE/DX   Delta X   Delta X   Delta X     New X
                                 (Linear)    (Quad)   (Total)
    R1        2.03781   0.00001   0.00000   0.00003   0.00003   2.03784
    R2        2.03789  -0.00001   0.00000  -0.00003  -0.00003   2.03786
    R3        2.03787  -0.00001   0.00000  -0.00003  -0.00003   2.03784
    A2        2.08057  -0.00002   0.00000  -0.00008  -0.00008   2.08049
    A3        2.08054  -0.00001   0.00000  -0.00012  -0.00012   2.08042
    D3        3.45060  -0.00003   0.00000   0.00044   0.00044   3.45104
   DH1        1.72423   0.00005   0.00000   0.00145   0.00145   1.72568
   ANG1       1.65999   0.00003   0.00000   0.00086   0.00086   1.66085
    BB        4.53534  -0.02287   0.00000   0.00000   0.00000   4.53534
         Item               Value     Threshold  Converged?
 Maximum Force            0.000048     0.000450     YES
 RMS     Force            0.000024     0.000300     YES
 Maximum Displacement     0.001448     0.001800     YES
 RMS     Displacement     0.000583     0.001200     YES
 Predicted change in Energy=-4.361900D-08
 Optimization completed.
    -- Stationary point found.
                       ----------------------------
                       !   Optimized Parameters   !
                       ! (Angstroms and Degrees)  !
 ----------------------                            ----------------------
 !      Name          Value   Derivative information (Atomic Units)     !
 ------------------------------------------------------------------------
 !       R1          1.0784   -DE/DX =    0.0                           !
 !       R2          1.0784   -DE/DX =    0.0                           !
 !       R3          1.0784   -DE/DX =    0.0                           !
 !       A2        119.2079   -DE/DX =    0.0                           !
 !       A3        119.2064   -DE/DX =    0.0                           !
 !       D3        197.7049   -DE/DX =    0.0                           !
 !       DH1        98.791    -DE/DX =    0.0                           !
 !      ANG1        95.1103   -DE/DX =    0.0                           !
 !       BB          2.4      -DE/DX =   -0.0229                        !
 ------------------------------------------------------------------------
 GradGradGradGradGradGradGradGradGradGradGradGradGradGradGradGradGradGrad


 Test job not archived.
 1\1\GINC-NODE-6-8\Freq\UwB97XD\Aug-CC-pVTZ\C1H4\CAVALLOTTI\03-Jun-2023
 \1\\#N Geom=AllCheck Guess=TCheck SCRF=Check Test GenChk UwB97XD/Aug-C
 C-pVTZ Freq\\geom 0\\0,1\C\H,1,R1\H,1,R2,2,A2\H,1,R3,2,A3,3,D3,0\H,1,B
 B,2,ANG1,3,DH1,0\\R1=1.07836331\R2=1.07840297\R3=1.07839411\A2=119.207
 85214\A3=119.20636301\D3=197.70492486\DH1=98.79102672\ANG1=95.11033069
 \BB=2.4\\Version=EM64L-G09RevD.01\HF=-40.3553205\S2=0.654375\S2-1=0.\S
 2A=0.010201\RMSD=1.655e-09\RMSF=8.355e-03\ZeroPoint=0.0327558\Thermal=
 0.0361195\Dipole=0.0611512,0.3943641,0.0357927\DipoleDeriv=-0.0071079,
 -0.0779758,-0.0069451,-0.0780762,-0.4983377,-0.0458792,-0.0070172,-0.0
 456818,0.0010331,0.0557016,0.0057402,-0.0053127,0.0057544,0.091996,-0.
 0338816,-0.002487,-0.0163993,-0.0262531,-0.0099318,-0.0113343,0.033839
 1,-0.0272586,0.0908763,0.0217504,0.0309249,0.013006,0.0394893,0.010348
 6,0.0371312,-0.0257755,0.0528577,0.0702279,0.0307825,-0.0256406,0.0217
 784,0.0393864,-0.0490104,0.0464387,0.0041943,0.0467228,0.2452375,0.027
 2279,0.0042199,0.0272967,-0.0536557\Polar=21.5061848,4.1603713,47.7063
 099,0.3737942,2.4222828,21.0777321\PG=C01 [X(C1H4)]\NImag=1\\0.6103030
 8,-0.09248406,0.03017836,-0.00852100,-0.05423683,0.61986568,-0.0537092
 6,0.00608411,-0.00045352,0.04486378,0.00604828,-0.01573004,-0.00293934
 ,-0.00525411,0.01192098,0.00039012,0.00248516,-0.35984254,-0.00038785,
 -0.00250278,0.37271203,-0.28696071,0.00513754,0.13083932,0.00492204,0.
 00068959,-0.00377311,0.29430479,0.00043706,-0.01553052,0.00672119,0.00
 086332,0.00301239,0.00031349,-0.00478596,0.01173600,0.13002543,0.00408
 623,-0.12655460,0.02427356,0.00059212,-0.00657368,-0.13987849,-0.00338
 422,0.12327885,-0.26352469,0.07391810,-0.12252502,0.00428390,-0.001085
 18,0.00368317,-0.01222276,0.00641085,-0.01375488,0.27100456,0.07865021
 ,-0.03912868,0.04618991,-0.00128629,0.00366394,-0.00085719,-0.00132617
 ,0.00369981,-0.00066582,-0.07789996,0.03512924,-0.12255232,0.04342636,
 -0.12658920,-0.02294869,0.00795350,-0.00657886,0.01290585,-0.00482222,
 0.00988743,0.13214947,-0.04576320,0.12331700,-0.00610842,0.00734430,0.
 00066021,-0.00036046,-0.00039858,0.00008768,-0.00004337,-0.00292527,-0
 .00066563,0.00045899,0.00186222,0.00044570,0.00605326,0.00734851,0.040
 21088,0.00426507,-0.00040702,-0.00286728,0.00056132,0.00028499,-0.0029
 1768,-0.00062831,-0.00134381,-0.00336431,-0.00079444,-0.00588267,-0.03
 106160,0.00065778,0.00423908,-0.00687934,-0.00048350,-0.00310350,0.000
 28305,-0.00009357,0.00117177,-0.00003800,0.00044726,0.00109629,-0.0000
 3637,-0.00052796,-0.00340364,0.00667066\\0.00347379,0.02252937,0.00206
 417,-0.00000590,-0.00001952,-0.00000736,0.00000467,-0.00000931,-0.0000
 1498,-0.00000117,0.00001593,-0.00001085,-0.00347138,-0.02251647,-0.002
 03099\\\@


 Make no judgements where you have no compassion.
                               -- Anne McCaffrey
 Job cpu time:       0 days  0 hours 19 minutes  5.8 seconds.
 File lengths (MBytes):  RWF=     66 Int=      0 D2E=      0 Chk=      3 Scr=      1
 Normal termination of Gaussian 09 at Sat Jun  3 08:55:03 2023.
