
 Working directory              : /scratch/cc/139145/molpro.ixU87M2cL5/
 Global scratch directory       : /scratch/cc/139145/molpro.ixU87M2cL5/
 Wavefunction directory         : /home/chimica2/cavallotti/wfu/
 Main file repository           : /scratch/cc/139145/molpro.ixU87M2cL5/

 id        : polimi

 Nodes     nprocs
 node-6-10    4
 GA implementation: MPI file
 GA implementation (serial work in mppx): MPI file

 Using customized tuning parameters: mindgm=1; mindgv=20; mindgc=4; mindgr=1; noblas=0; minvec=7
 default implementation of scratch files=sf  


 Variables initialized (1015), CPU time= 0.01 sec
  memory,         400 ,m
   nosym
  geometry={angstrom
   C1
   H2   C1   R1
   H3   C1   R2   H2   A2
   H4   C1   R3   H2   A3   H3   D3
   C21 C1 BB H2 ANG1 H3 DH1
   H22 C21 R21 C1 ANG2 H2 DH2
   H23 C21 R22 H22 A22 C1 DH3
   H24 C21 R23 H22 A23 H23 D23
  }
  R1                             =    1.0833999999999999
  R2                             =    1.0834999999999999
  R3                             =    1.0834999999999999
  A2                             =    112.80340000000000
  A3                             =    112.80360000000000
  D3                             =    230.78399999999999
  R21                            =    1.0833999999999999
  R22                            =    1.0834999999999999
  R23                            =    1.0834999999999999
  A22                            =    112.80170000000000
  A23                            =    112.80530000000000
  D23                            =    129.21590000000000
  ANG2                           =    105.90230000000000
  DH3                            =    115.38300000000000
  DH2                            =    60.009599999999999
  DH1                            =    115.39540000000000
  ANG1                           =    105.89790000000001
  BB                             =    2.0000000000000000
 
   basis=cc-pvdz
   {multi;closed, 8;occ,10;wf, 18,1,0,;state,1;maxiter,40}
   {RS2,SHIFT=0.2;ORBITAL,IGNORE_ERROR;STATE,1}
   CBSen = energy
  put,molden,molpro.molden
 Commands initialized (834), CPU time= 0.02 sec, 672 directives.
 Default parameters read. Elapsed time= 0.23 sec

 Checking input...
 Passed
1


                                         ***  PROGRAM SYSTEM MOLPRO  ***
                                       Copyright, TTI GmbH Stuttgart, 2015
                                    Version 2022.2 linked Thu Sep 29 12:37:28 2022


 **********************************************************************************************************************************
 LABEL *                                                                                 
  64 bit mpp version                                                                     DATE: 27-May-23          TIME: 09:24:54  
 **********************************************************************************************************************************

 SHA1:             51306cdc306ce2a111a2867affebcb289530e0a7
 **********************************************************************************************************************************

 Memory per process:       400 MW
 Total memory per node:   1600 MW

 GA preallocation disabled
 GA check disabled

 Variable memory set to 400.0 MW

 ZSYMEL=NOSYM

 SETTING R1             =         1.08340000                                  
 SETTING R2             =         1.08350000                                  
 SETTING R3             =         1.08350000                                  
 SETTING A2             =       112.80340000                                  
 SETTING A3             =       112.80360000                                  
 SETTING D3             =       230.78400000                                  
 SETTING R21            =         1.08340000                                  
 SETTING R22            =         1.08350000                                  
 SETTING R23            =         1.08350000                                  
 SETTING A22            =       112.80170000                                  
 SETTING A23            =       112.80530000                                  
 SETTING D23            =       129.21590000                                  
 SETTING ANG2           =       105.90230000                                  
 SETTING DH3            =       115.38300000                                  
 SETTING DH2            =        60.00960000                                  
 SETTING DH1            =       115.39540000                                  
 SETTING ANG1           =       105.89790000                                  
 SETTING BB             =         2.00000000                                  
 SETTING BASIS          =    CC-PVDZ


 Recomputing integrals since basis changed


 Using spherical harmonics

 Library entry C      S cc-pVDZ              selected for orbital group  1
 Library entry C      P cc-pVDZ              selected for orbital group  1
 Library entry C      D cc-pVDZ              selected for orbital group  1
 Library entry H      S cc-pVDZ              selected for orbital group  2
 Library entry H      P cc-pVDZ              selected for orbital group  2


 PROGRAM * SEWARD (Integral evaluation for generally contracted gaussian basis sets)     Author: Roland Lindh, 1990

 Geometry written to block  1 of record 700

 Orientation using atomic masses  
 Molecule type: Asymmetric top
 Rotational constants:      13.4852020     13.4854422     76.9642575 GHz  (calculated with average atomic masses)

 Point group  C1  



 ATOMIC COORDINATES

 NR  ATOM    CHARGE       X              Y              Z

   1  C1      6.00    0.000028592    0.000047138   -1.889726217
   2  H2      1.00    0.933029936    1.733996277   -2.450516791
   3  H3      1.00    1.034874084   -1.675235577   -2.450844423
   4  H4      1.00   -1.968248466   -0.059281377   -2.450704434
   5  C21     6.00   -0.000047611    0.000040212    1.889726031
   6  H22     1.00   -1.035464995    1.674796213    2.450671995
   7  H23     1.00    1.968296300    0.059115887    2.450496324
   8  H24     1.00   -0.932260213   -1.734432319    2.450899545

 Bond lengths in Bohr (Angstrom)

 1-2  2.047329283  1-3  2.047518256  1-4  2.047518256  1-5  3.779452249  5-6  2.047329283
     ( 1.083400000)     ( 1.083500000)     ( 1.083500000)     ( 2.000000000)     ( 1.083400000)

 5-7  2.047518256  5-8  2.047518256
     ( 1.083500000)     ( 1.083500000)

 Bond angles

  1-5-6  105.90230000   1-5-7  105.89400615   1-5-8  105.90753567   2-1-3  112.80340000

  2-1-4  112.80360000   2-1-5  105.89790000   3-1-4  112.77186326   3-1-5  105.90580473

  4-1-5  105.90005590   6-5-7  112.80170000   6-5-8  112.80530000   7-5-8  112.77179187

 NUCLEAR CHARGE:                   18
 NUMBER OF PRIMITIVE AOS:          96
 NUMBER OF SYMMETRY AOS:           94
 NUMBER OF CONTRACTIONS:           58   (   58A   )
 NUMBER OF INNER CORE ORBITALS:     0   (    0A   )
 NUMBER OF OUTER CORE ORBITALS:     2   (    2A   )
 NUMBER OF VALENCE ORBITALS:       14   (   14A   )


 NUCLEAR REPULSION ENERGY   38.03345167

 Eigenvalues of metric

         1 0.864E-02 0.150E-01 0.363E-01 0.363E-01 0.366E-01 0.366E-01 0.415E-01 0.452E-01


 Contracted 2-electron integrals neglected if value below      1.0D-11
 AO integral compression algorithm  1   Integral accuracy      1.0D-11

     8.126 MB (compressed) written to integral file ( 57.7%)

     Node minimum: 1.835 MB, node maximum: 2.359 MB


 NUMBER OF SORTED TWO-ELECTRON INTEGRALS:     365512.     BUFFER LENGTH:  32768
 NUMBER OF SEGMENTS:   1  SEGMENT LENGTH:     365512      RECORD LENGTH: 524288

 Memory used in sort:       0.92 MW

 SORT1 READ     1712577. AND WROTE      358005. INTEGRALS IN      2 RECORDS. CPU TIME:     0.04 SEC, REAL TIME:     0.07 SEC
 SORT2 READ     1432842. AND WROTE     1464616. INTEGRALS IN     28 RECORDS. CPU TIME:     0.03 SEC, REAL TIME:     0.05 SEC

 Node minimum:      365512.  Node maximum:      366796. integrals

 OPERATOR DM      FOR CENTER  0  COORDINATES:    0.000000    0.000000    0.000000


 **********************************************************************************************************************************
 DATASETS  * FILE   NREC   LENGTH (MB)   RECORD NAMES
              1      18       28.78       500      610      700      900      950      970     1000      129      960     1100   
                                          VAR    BASINP    GEOM    SYMINP    ZMAT    AOBASIS   BASIS     P2S    ABASIS      S 
                                         1400     1410     1200     1210     1080     1600     1650     1700   
                                           T        V       H0       H01     AOSYM     SMH    MOLCAS    OPER   

 PROGRAMS   *        TOTAL       INT
 CPU TIMES  *         0.72      0.43
 REAL TIME  *         1.26 SEC
 DISK USED  *        29.15 MB (local),      154.76 MB (total)
 GA USED    *         0.00 MB       (max)       0.00 MB       (current)
 **********************************************************************************************************************************

 PROGRAM * MULTI (Direct Multiconfiguration SCF)       Authors: P.J. Knowles, H.-J. Werner (1984)
                                                                D.A. Kreplin, P.J. Knowles, H.-J. Werner (2019)

 Number of closed-shell orbitals:   8 (    8)
 Number of active  orbitals:        2 (    2)
 Number of external orbitals:      48 (   48)

 State symmetry 1

 Number of active electrons:   2    Spin symmetry=Singlet   Space symmetry=1
 Number of states:             1
 Number of CSFs:               3   (4 determinants, 4 intermediate states)

 Orbital guess generated from atomic densities. Full valence occupancy:   16

 Wavefunction dump at record             2140.2

 Convergence thresholds  0.10E-04 (gradient)  0.10E-05 (energy)
 
 Number of orbital rotations:  496  ( 16 closed/active, 384 closed/virtual, 0 active/active, 96 active/virtual )
 Total number of variables:    500
 
 Second-order MCSCF: L-BFGS accelerated
 
 ITER  MIC  NCI  NEG     ENERGY(VAR)    ENERGY(PROJ) ENERGY CHANGE       GRAD(0)  GRAD(ORB)   GRAD(CI)      STEP      TIME
   1    8    7    0    -79.17506399     -79.20508293   -0.03001894    0.21515454 0.00004254 0.00000000  0.32E+00      0.40
   2   10    8    0    -79.20600358     -79.20616912   -0.00016554    0.01180094 0.00000074 0.00000000  0.39E-01      1.01
   3    9    7    0    -79.20616943     -79.20616944   -0.00000000    0.00006763 0.00000000 0.00000000  0.17E-03      1.56

 CONVERGENCE REACHED!  Final gradient:    0.00000000 ( 0.16E-08)
                       Final energy:    -79.20616944
 
 First order charge density matrix for state 1.1 saved on record 2140.2 (density set 1)
 
 Results for state 1.1
 =====================
 !MCSCF STATE 1.1 Energy                       -79.206169435793
 Nuclear energy                                 38.03345167
 Kinetic energy                                 78.83123370
 One electron energy                          -180.65631161
 Two electron energy                            63.41669051
 Virial ratio                                    2.00475618
 
 !MCSCF STATE 1.1 Dipole moment                  0.00001700    -0.00000294    -0.00000010
 Dipole moment /Debye                            0.00004320    -0.00000746    -0.00000025
 
 No non-zero expectation values
 
 
 Natural orbital dump at molpro section 2140.2 (Orbital set 2)


 **********************************************************************************************************************************
 DATASETS  * FILE   NREC   LENGTH (MB)   RECORD NAMES
              1      19       30.97       500      610      700      900      950      970     1000      129      960     1100   
                                          VAR    BASINP    GEOM    SYMINP    ZMAT    AOBASIS   BASIS     P2S    ABASIS      S 
                                         1400     1410     1200     1210     1080     1600     1650     1700     1380   
                                           T        V       H0       H01     AOSYM     SMH    MOLCAS    OPER     JKOP   

              2       4        0.54       700     1000      520     2140   
                                         GEOM     BASIS   MCVARS    MCSCF   

 PROGRAMS   *        TOTAL     MULTI       INT
 CPU TIMES  *         1.52      0.80      0.43
 REAL TIME  *         3.01 SEC
 DISK USED  *        31.56 MB (local),      164.40 MB (total)
 SF USED    *         7.24 MB
 GA USED    *         0.00 MB       (max)       0.00 MB       (current)
 **********************************************************************************************************************************


 PROGRAM * RS2 (Multireference RS Perturbation Theory)     Authors: H.-J. Werner (1993), P. Celani (1998)


 Level shift= 0.20

 Convergence thresholds:  THRVAR = 1.00D-08  THRDEN = 1.00D-06

 Number of optimized states: 1  Roots:    1
 Number of reference states: 1  Roots:    1

 Reference symmetry:                   1   Singlet 
 Number of electrons:                 18
 Maximum number of shells:             4
 Maximum number of spin couplings:     5

 Reference space:        3 conf        3 CSFs
 N elec internal:       36 conf       36 CSFs
 N-1 el internal:       62 conf       98 CSFs
 N-2 el internal:       76 conf      184 CSFs

 Number of electrons in valence space:                     14
 Maximum number of open shell orbitals in reference space:  2
 Maximum number of open shell orbitals in internal spaces:  6


 Number of core orbitals:           2 (   2 )
 Number of closed-shell orbitals:   6 (   6 )
 Number of active  orbitals:        2 (   2 )
 Number of external orbitals:      48 (  48 )

 Molecular orbitals read from record     2140.2  Type=MCSCF/NATURAL (state 1.1)

 Integral transformation finished. Total CPU:   0.03 sec, npass=  1  Memory used:   0.33 MW


 Number of p-space configurations:   1

 Reference wavefunction optimized for reference space (refopt=1)

 State     Reference Energy 
     1       -79.20616944

 Number of blocks in overlap matrix:     2   Smallest eigenvalue:  0.10D+01
 Number of N-2 electron functions:      61
 Number of N-1 electron functions:      98

 Number of internal configurations:                   36
 Number of singly external configurations:          4704
 Number of doubly external configurations:         70440
 Total number of contracted configurations:        75180
 Total number of uncontracted configurations:     216660

 Weight factors for SA-density in H0:    1.000000

 FIMAX=  0.13D+00  FXMAX=  0.36D-12  DIAG=  F  T  NOREF=1  NOINT=0  IHPPD=2

 Nuclear energy:                      38.03345167
 Core energy:                        -78.38754242
 Zeroth-order valence energy:         -8.72305425
 Zeroth-order total energy:          -49.07714499
 First-order energy:                 -30.12902444

 Using uncontracted singles

 Diagonal Coupling coefficients finished.               Storage:    3121 words, CPU-Time:      0.00 seconds.
 Energy denominators for pairs finished in 0 passes.    Storage:    7322 words, CPU-time:      0.00 seconds.

 A level shift of 0.20 is applied.

  ITER. STATE  ROOT     SQ.NORM     CORR.ENERGY   TOTAL ENERGY   ENERGY CHANGE       DEN1      VAR(S)    VAR(P)      TIME
    1     1     1     1.01370720    -0.00274144   -79.20891088    -0.00274144    -0.26111034  0.14D-01  0.71D-01     0.08
    2     1     1     1.08449900    -0.27851408   -79.48468351    -0.27577264    -0.00011518  0.85D-04  0.10D-03     0.08
    3     1     1     1.08474386    -0.27906111   -79.48523055    -0.00054704    -0.00039351  0.29D-05  0.71D-06     0.10
    4     1     1     1.08479871    -0.27908029   -79.48524972    -0.00001917     0.00000348  0.46D-07  0.28D-07     0.10
    5     1     1     1.08480485    -0.27908166   -79.48525110    -0.00000137    -0.00000662  0.15D-08  0.50D-09     0.11
    6     1     1     1.08480575    -0.27908186   -79.48525129    -0.00000020     0.00000002  0.43D-10  0.16D-10     0.12
    7     1     1     1.08480591    -0.27908187   -79.48525131    -0.00000002    -0.00000014  0.13D-11  0.55D-12     0.13

 Energies without level shift correction:

    7     1     1     1.08480591    -0.26212069   -79.46829013

 Energy contributions for state 1.1:
 ===================================

            Energy contr.      SQ.Norm of FOWF
 Space I     -0.00087013          0.00042831
 Space S     -0.03306392          0.01388390
 Space P     -0.22818664          0.07049369


 =====================================
 Analysis of CPU times by interactions
 =====================================

       I      S      P

 I   0.0%
 S   0.0%   7.7%
 P   7.7%   0.0%  15.4%

 Initialization:  53.8%
 Other:           15.4%

 Total CPU:        0.1 seconds
 =====================================



 Reference coefficients greater than 0.0500000
 =============================================
 22222220           0.9817790
 22222202          -0.1900260


 RESULTS FOR STATE 1.1
 =====================

 Coefficient of reference function:   C(0) = 1.00000000 (fixed)   1.00000000 (relaxed)

 Energy contributions of configuration classes

 CLASS          SQ.NORM        ECORR1        ECORR2
 +++++++++++++++++++++++++++++++++++++++++++++++++++
 Internals    0.00042831   -0.00087013    0.27722899
 Singles      0.01388390   -0.03306391   -0.07040680
 Pairs        0.07049369   -0.22818664   -0.48590406
 Total        1.08480591   -0.26212068   -0.27908187
 +++++++++++++++++++++++++++++++++++++++++++++++++++


 Reference energy                     -79.20616944
 Nuclear energy                        38.03345167
 Kinetic energy                        79.00326425
 One electron energy                 -180.51865443
 Two electron energy                   62.99995146
 Virial quotient                       -1.00610085
 Correlation energy                    -0.27908187
 !RSPT2 STATE 1.1 Energy              -79.485251308548

 Properties without orbital relaxation:

 !RSPT2 STATE 1.1 Dipole moment         0.00001736    -0.00000537    -0.00000009
 Dipole moment /Debye                   0.00004413    -0.00001364    -0.00000024


 **********************************************************************************************************************************
 DATASETS  * FILE   NREC   LENGTH (MB)   RECORD NAMES
              1      19       30.97       500      610      700      900      950      970     1000      129      960     1100   
                                          VAR    BASINP    GEOM    SYMINP    ZMAT    AOBASIS   BASIS     P2S    ABASIS      S 
                                         1400     1410     1200     1210     1080     1600     1650     1700     1380   
                                           T        V       H0       H01     AOSYM     SMH    MOLCAS    OPER     JKOP   

              2       4        0.54       700     1000      520     2140   
                                         GEOM     BASIS   MCVARS    MCSCF   

 PROGRAMS   *        TOTAL       RS2     MULTI       INT
 CPU TIMES  *         1.75      0.22      0.80      0.43
 REAL TIME  *         3.74 SEC
 DISK USED  *        31.56 MB (local),      164.40 MB (total)
 SF USED    *         8.72 MB
 GA USED    *         0.00 MB       (max)       0.00 MB       (current)
 **********************************************************************************************************************************
 SETTING CBSEN          =       -79.48525131  AU                              

 Dump information in style MOLDEN to molpro.molden                                                                   

 Molecular orbitals read from record     2140.2  Type=MCSCF/NATURAL (state 1.1)
 Occupation numbers read from record     2140.2  Type=MCSCF/NATURAL (state 1.1)
 Orbital energies read from record       2140.2  Type=MCSCF/NATURAL (state 1.1)
 Redundancy group numbers read from rec  2140.2  Type=MCSCF/NATURAL (state 1.1)

 DUMP ORBITAL  1.1 AS ORBITAL    1  occ=    2.0000  eig=  -11.2332  GROUP=   2
 DUMP ORBITAL  2.1 AS ORBITAL    2  occ=    2.0000  eig=  -11.2331  GROUP=   2
 DUMP ORBITAL  3.1 AS ORBITAL    3  occ=    2.0000  eig=   -0.9155  GROUP=   2
 DUMP ORBITAL  4.1 AS ORBITAL    4  occ=    2.0000  eig=   -0.8660  GROUP=   2
 DUMP ORBITAL  5.1 AS ORBITAL    5  occ=    2.0000  eig=   -0.5736  GROUP=   2
 DUMP ORBITAL  6.1 AS ORBITAL    6  occ=    2.0000  eig=   -0.5735  GROUP=   2
 DUMP ORBITAL  7.1 AS ORBITAL    7  occ=    2.0000  eig=   -0.5271  GROUP=   2
 DUMP ORBITAL  8.1 AS ORBITAL    8  occ=    2.0000  eig=   -0.5270  GROUP=   2
 DUMP ORBITAL  9.1 AS ORBITAL    9  occ=    1.9278  eig=   -0.4046  GROUP=   3
 DUMP ORBITAL 10.1 AS ORBITAL   10  occ=    0.0722  eig=    0.3106  GROUP=   3

 Total charge:      18.000000

 **********************************************************************************************************************************

 RS2/cc-pVDZ energy=    -79.485251308548

             RS2           MULTI
    -79.48525131    -79.20616944
 **********************************************************************************************************************************
 Molpro calculation terminated
