[Molden Format]
[Molpro variables]
_NUMVAR=  1056.000000000000    
_AVOGAD= 0.6022140760000000E+24
_BOLTZ= 0.1380649000000000E-22
_CLIGHTSI=  299792458.0000000    
_JOULE= 0.4359744722207100E-17
_JPCAL=  4.184000000000000    
_PLANCK= 0.6626070150000000E-33
_BOHR= 0.5291772109030000E-10
_ECHARG= 0.1602176634000000E-18
_ENULL= 0.8854187812800001E-11
_MU= 0.1660539066600000E-26
_EMASS= 0.9109383701500001E-30
_AMU2AU=  1822.888486217313    
_CLIGHT=  29979245800.00000    
_EV= 0.3674932217565494E-01
_KJOULE= 0.3808798847133432E-03
_KJOULE/MOL= 0.3808798847133432E-03
_CM= 0.4556335252912009E-05
_CM-1= 0.4556335252912009E-05
_DEB2SI= 0.3335640951981520E-29
_KCAL= 0.1593601437640628E-02
_KCAL/MOL= 0.1593601437640628E-02
_KELVIN= 0.3166811563455608E-05
_HERTZ= 0.1519829846057038E-15
_HZ= 0.1519829846057038E-15
_TOA= 0.5291772109030000    
_TOANG= 0.5291772109030000    
_TORAD= 0.1745329251994330E-01
_TOCM=  219474.6313631965    
_TODEBYE=  2.541746473194078    
_TOE= 0.4803204712570263E-09
_TOEV=  27.21138624598803    
_TOHERTZ=  6579683920501656.    
_TOHZ=  6579683920501656.    
_TOK=  315775.0248040668    
_TOKCAL=  627.5094740630558    
_TOKELVIN=  315775.0248040668    
_TOKJ=  2625.499639479825    
_TOKJOULE=  2625.499639479825    
_TOKG= 0.1660539066600000E-26
_ANG=  1.889726124625770    
_ANGSTROM=  1.889726124625770    
_RPAREF=  0.000000000000000    
_RPADISS=  0.000000000000000    
_IGNORE_UNDEF=  2.000000000000000    
_STRICTCHECK=  0.000000000000000    
!SEWARD=  0.000000000000000    
!MULTI=  0.000000000000000    
!DFMULTI=  0.000000000000000    
_SEW_ONEEL=  0.000000000000000    
_CPPDONE=FALSE
_DKROLL_DONE=  0.000000000000000    
_FNUC_DONE=  0.000000000000000    
_FOCKDONE=  0.000000000000000    
_GRADONE=FALSE
_HESSDONE=FALSE
_INTDONE=TRUE
_SCFDONE=FALSE
_MODUL_BLOCK=FALSE
_MODUL_CUDA=FALSE
_MODUL_SLATER=FALSE
_MODUL_MRCC=TRUE
_MODUL_NBO6=FALSE
_MODUL_NECI=FALSE
_MODUL_AIMS=TRUE
_MODUL_GECCO=FALSE
_ISWINDOWS=FALSE
_MRCC_EXEC=/software/cinetica/mrcc/bin/dmrcc
_FITC_AO_SAVED=FALSE
_FITC_MO_SAVED=FALSE
_SHARED_FS=TRUE
_LSTYP=SEWARD
_INTYP=INTS
_GEOMTYP=ZMAT
_GRADTYP=ALASKA
_DIRECT=FALSE
_DKHO= -1.000000000000000    
_FNUC=  0.000000000000000    
_SYNCM=  0.000000000000000    
_BASIS=CC-PVDZ
_ZORIENT=  1.000000000000000    
!ZORIENT=  0.000000000000000    
_NELEC=  18.00000000000000    
!SPIN=  0.000000000000000    
_QSDSTEP=  0.000000000000000    
_QSDIRC=  0.000000000000000    
_PROGRAM=RS2
_CPUSTEP= 0.2300000000000000    
_SYSSTEP= 0.9000000000000008E-01
_WALLSTEP= 0.7300000000000000    
!DFMP2=  0.000000000000000    
!DFHFENERG=  0.000000000000000    
!SCSGRD=  0.000000000000000    
_CPUTOT=  1.750000000000000    
_DMX= 0.1736328256418175E-04
_DMY=-0.5365471868284694E-05
_DMZ=-0.9443404492626498E-07
_EMP2= -79.48525130854819    
_ENERGR= -79.20616943579276    
_ENERGU= -79.46829012720789    
_ENERGY= -79.48525130854819    
_ENERGY_METHOD=RS2
_ENERGY_BASIS=cc-pVDZ
_GEOMETRY_METHOD=
_GEOMETRY_BASIS=
_ENERGY_AVRG= -79.20616943579273    
_ENUC=  38.03345167114308    
_GRADMETHOD=  9.000000000000000    
_NMRMETHOD=  0.000000000000000    
_NMRMAGNET=  0.000000000000000    
!GRID_FREEZE= -1.000000000000000    
!NEESE_INDEX=  0.000000000000000    
_ITERATIONS=  6.000000000000000    
_LASTNELEC=  2.000000000000000    
_LASTSPIN=  0.000000000000000    
_LASTSYM=  1.000000000000000    
_MPP_PROG=  1.000000000000000    
_MSNSTATES=  0.000000000000000    
_RS2PHASE=  0.000000000000000    
_IPROC_MPP=  0.000000000000000    
_IPROC_MPPX=  0.000000000000000    
_NPROC_MPP=  4.000000000000000    
_NPROC_MPPX=  4.000000000000000    
_NPROC_SMP=  1.000000000000000    
_NUMSTEP=  0.000000000000000    
_ORBITAL=  2140.200000000000    
_PI=  3.141592653589793    
!MCACT=  2.000000000000000    
!MCCLOSED=  8.000000000000000    
!MCFREEZE=  0.000000000000000    
!MCMS2=  0.000000000000000    
!MCNEL=  2.000000000000000    
!MCNSTSYM=  1.000000000000000    
!MCSTATE=  1.000000000000000    
!MCSYM=  1.000000000000000    
!MCWEIGHT=  1.000000000000000    
_SEIG_MIN= 0.8640748900837202E-02
_SEWPROP=TRUE
_STATUS=  1.000000000000000    
_SYSTOT= 0.5800000000000001    
_VERSION=  2022002.000000000    
_WALLTOT=  3.740000000000000    
_DATE=27-May-23
_LASTORB=MCSCF
_OUTPUT=/home/chimica2/cavallotti/qm/barrierless/vrc_autom/folders/ch3+ch3/dist_2.0/molpro.out
_PGROUP=C1
_TIME=09:24:54
_LIBMOL=/software/cinetica/molpro_2022.2/lib/
_VIGRDC=  0.000000000000000    
!VIBCNT=  0.000000000000000    
!RGHFCNT=  0.000000000000000    
!SURFREC=  0.000000000000000    
!XSURFREC=  0.000000000000000    
!XPOLYREC=  0.000000000000000    
!ROTREC=  0.000000000000000    
!POLYREC=  0.000000000000000    
!DIPREC=  0.000000000000000    
!DIP4DREC=  0.000000000000000    
!DIPROT=  0.000000000000000    
!DIP4DROT=  0.000000000000000    
!PTREC=  0.000000000000000    
!PT4DREC=  0.000000000000000    
!VSCFREC=  0.000000000000000    
!VCIREC=  0.000000000000000    
!PVCIREC=  0.000000000000000    
!VMP2REC=  0.000000000000000    
!VMCSCFREC=  0.000000000000000    
!VMRCIREC=  0.000000000000000    
!VIBSTATEREC=  0.000000000000000    
!VIBSTATECNT=  0.000000000000000    
!VIBINFO=  0.000000000000000    
!GAREC=  0.000000000000000    
!MCORB=  21402.00000000000    
!DEFCORE=  2.000000000000000    
!SCORE=  0.000000000000000    
!NEWMOL= -1.000000000000000    
!NEWSYM= -1.000000000000000    
_SLFILES=slscratch
_NGSSTO=  9.000000000000000    
_SIN=SIN
_COS=COS
_TAN=TAN
_ACOS=ACOS
_ASIN=ASIN
_ATAN=ATAN
_COSH=COSH
_SINH=SINH
_TANH=TANH
_ABS=ABS
_MOD=MOD
_ERF=ERF
_REFC=REFC
_ERFC=ERFC
_HYPOT=HYPOT
_J0=J0
_J1=J1
_JN=JN
_GAMMA=GAMMA
_LGAMMA=LGAMMA
_Y0=Y0
_Y1=Y1
_YN=YN
_EXP=EXP
_LOG=LOG
_LOG10=LOG10
_SQRT=SQRT
_INT=INT
_NINT=NINT
_MAX=MAX
_MIN=MIN
_COSMO=  0.000000000000000    
_COSMOIT=  0.000000000000000    
_COSMOES=  0.000000000000000    
_COSMOEDS=  0.000000000000000    
_COSMOEC=  0.000000000000000    
_COSMOEDCORR=  0.000000000000000    
_FEPSI=  1.000000000000000    
_SL_IsMM=  0.000000000000000    
_SL_NSYM=  1.000000000000000    
_SL_System_BitSw=  0.000000000000000    
_SL_Unique_atoms=  0.000000000000000    
_SL_GRAD=  0.000000000000000    
_SL_MAXUPD_Hess=  5.000000000000000    
_SL_N_PRINT_COD=  5.000000000000000    
_SL_PRINT_CODES=  0.000000000000000    
_SL_BasType=  0.000000000000000    
_SL_Energy_Pred=  0.000000000000000    
_SL_New_Coords=  0.000000000000000    
_SL_Total_Nuclea=  0.000000000000000    
_SL_Highest_Mltp=  0.000000000000000    
_SL_Ref_Geom=  0.000000000000000    
_SL_Symmetry_ope=  1.000000000000000    
_SL_agrad=  0.000000000000000    
_SL_GrdMax=  0.000000000000000    
_SL_GrdNorm=  0.000000000000000    
_SL_GrdRMS=  0.000000000000000    
_SL_Hss_Q=  0.000000000000000    
_SL_Hss_X=  0.000000000000000    
_SL_BMxOld=  0.000000000000000    
_SL_KtB=  0.000000000000000    
_SL_TROld=  0.000000000000000    
_SL_No_of_Intern=  0.000000000000000    
_SL_Hess=  0.000000000000000    
_SL_K=  0.000000000000000    
!LATTICE= -1.000000000000000    
!NEWLATTICE=  0.000000000000000    
!LATGRAD_VAR=FALSE
!SEW_LATTICE=  1.000000000000000    
!AIC_ONEEL=  0.000000000000000    
!LOCAL=  0.000000000000000    
!SAVEDOM= -1.000000000000000    
!RESTDOM= -1.000000000000000    
!SAVEDOM_HF= -1.000000000000000    
!RESTDOM_HF= -1.000000000000000    
!HESSREC=  0.000000000000000    
!FREQREC=  0.000000000000000    
!NMODREC=  0.000000000000000    
!GTASKS=  0.000000000000000    
!HTASKS=  0.000000000000000    
!SAVEDOM_EOM= -1.000000000000000    
!RESTDOM_EOM= -1.000000000000000    
!GRADSTATE= -1.000000000000000    
!DEBUG=  0.000000000000000    
!CFIT_CPHF=  0.000000000000000    
!RDOMAUX_CPHF=  0.000000000000000    
!THRAO_CPHF= 0.1000000000000000E-11
!THRMO_CPHF= 0.1000000000000000E-11
!THROV_CPHF= 0.1000000000000000E-11
!THRSW_CPHF= 0.1000000000000000E-11
!THRPROD_CPHF= 0.1000000000000000E-11
!THRAOPR_CPHF= 0.1000000000000000E-11
!CFIT_SCFGRD=  0.000000000000000    
!RDOMAUX_SCFGRD=  0.000000000000000    
!THRAO_SCFGRD= 0.1000000000000000E-11
!THRMO_SCFGRD= 0.1000000000000000E-11
!THROV_SCFGRD= 0.1000000000000000E-11
!THRSW_SCFGRD= 0.1000000000000000E-11
!THRPROD_SCFGRD= 0.1000000000000000E-11
!THRAOPR_SCFGRD= 0.1000000000000000E-11
!LOCFIT_SCF=  0.000000000000000    
!LOCFIT_MP2=  0.000000000000000    
_RIDOM=  0.000000000000000    
!CC2_METHOD=  0.000000000000000    
_BASIS2006=FALSE
_SVDDEL= -1.000000000000000    
_SVDDELA= -1.000000000000000    
_SVDDELP= -1.000000000000000    
_SVDDELF= -1.000000000000000    
_SVDDELS= -1.000000000000000    
_SVDDEL_ABS= -1.000000000000000    
_SVDDELA_ABS= -1.000000000000000    
_SVDDELP_ABS= -1.000000000000000    
_SVDDELF_ABS= -1.000000000000000    
_SVDDELS_ABS= -1.000000000000000    
_MAXBASIS=  0.000000000000000    
!OPT_CONICAL=  0.000000000000000    
!CLEARSP_JGRID=  0.000000000000000    
_GRDHYBR=  0.000000000000000    
_STATEGRAD=  1.000000000000000    
_4EXT_NDISKS=  1.000000000000000    
!EMBEDFLAG=  1.000000000000000    
!EMBED=FALSE
!EMBED_F12=FALSE
!EMBEDNUC=  0.000000000000000    
_EMBEDENERGY=  0.000000000000000    
!EMBED_DFC=FALSE
!NUM_VOIDS=  0.000000000000000    
_IBODY=  0.000000000000000    
_EMBE_CORR=  0.000000000000000    
!EMBED_PROJ=FALSE
!EMB_PROJ_ZMU=  1000000.000000000    
!CORRECTION_HF=  0.000000000000000    
!EMBED_AORB=  0.000000000000000    
!EMBED_NACORR=  0.000000000000000    
!EMBED_MP2=FALSE
!EMBED_TRUNC_PERTURBATION=FALSE
!EMBED_FROZEN=  0.000000000000000    
!EMBED_ACTIVE=  0.000000000000000    
_CHANGE_BASIS=FALSE
_RESTORE_BASIS=FALSE
_FIX_EMBED_GUESS=FALSE
_EMBED_SCF=FALSE
_HUZINAGA_T=FALSE
_HUZINAGA_F=FALSE
_HUZINAGA=FALSE
_HUZINAGA_CORRECT=FALSE
!FASTLATGRAD=  1.000000000000000    
!FASTVLAMBDA= -1.000000000000000    
!IFORCE= -1.000000000000000    
!USESYM= -1.000000000000000    
_SINDEX=  0.000000000000000    
_AVDOM_OSV=  0.000000000000000    
_AVDOM_PNO=  0.000000000000000    
_AVDOM_PAO=  0.000000000000000    
_AVDOM_LMO=  0.000000000000000    
_CC2OSV_FLAG=  0.000000000000000    
_EOMCCSD_CONV=FALSE
_TMADC2_FLAG=FALSE
_PROPADC2_FLAG=FALSE
_LEN_VirQ=  0.000000000000000    
_GRDCC2LR_FLAG=FALSE
_GRDADC2_FLAG=FALSE
_DMX_CC=-0.1672478077825446E-03
_DMY_CC= 0.5141850939089920E-03
_DMZ_CC=-0.1618158663063696E-05
_DMX_NUC= 0.1125280859999300E-03
_DMY_NUC=-0.5167962379997171E-03
_DMZ_NUC= 0.1100435001344380E-05
_RO_VGLOBAL=  0.000000000000000    
_OPT=FALSE
_FREQ=FALSE
_HESS=FALSE
_CMRCC_callName=EMPTY
_CMRCC_callCount=  0.000000000000000    
_GECCO_CIROOT=  1.000000000000000    
_SYM_CATION=  0.000000000000000    
_MON_A=FALSE
_MON_B=FALSE
R1=  1.083400000000000    
R2=  1.083500000000000    
R3=  1.083500000000000    
A2=  112.8034000000000    
A3=  112.8036000000000    
D3=  230.7840000000000    
R21=  1.083400000000000    
R22=  1.083500000000000    
R23=  1.083500000000000    
A22=  112.8017000000000    
A23=  112.8053000000000    
D23=  129.2159000000000    
ANG2=  105.9023000000000    
DH3=  115.3830000000000    
DH2=  60.00960000000000    
DH1=  115.3954000000000    
ANG1=  105.8979000000000    
BB=  2.000000000000000    
GX1= 0.2859159597298766E-04
GY1= 0.4713810309547872E-04
GZ1= -1.889726217237722    
GX2= 0.9330299363825232    
GY2=  1.733996277419473    
GZ2= -2.450516791015247    
GX3=  1.034874084098332    
GY3= -1.675235576858997    
GZ3= -2.450844422593065    
GX4= -1.968248466158358    
GY4=-0.5928137749998436E-01
GZ4= -2.450704434228990    
GX5=-0.4761133665709405E-04
GY5= 0.4021191406711200E-04
GZ5=  1.889726031239255    
GX6= -1.035464994699524    
GY6=  1.674796212803683    
GZ6=  2.450671995180044    
GX7=  1.968296299794704    
GY7= 0.5911588703326268E-01
GZ7=  2.450496323699297    
GX8=-0.9322602128857833    
GY8= -1.734432319236648    
GZ8=  2.450899545387106    
CBSEN= -79.48525130854819    
[Atoms] Angs
C     1    6         0.0000151300        0.0000249444       -1.0000000490
H     2    1         0.4937381794        0.9175913138       -1.2967576407
H     3    1         0.5476317815       -0.8864964902       -1.2969310159
H     4    1        -1.0415522337       -0.0313703540       -1.2968569373
C     5    6        -0.0000251948        0.0000212792        0.9999999506
H     6    1        -0.5479444779        0.8862639887        1.2968397712
H     7    1         1.0415775462        0.0312827802        1.2967468099
H     8    1        -0.4933308593       -0.9178220572        1.2969601856
[GTO]
   1 0
 s    9  1.00
  0.6665000000D+04  0.6920001793D-03
  0.1000000000D+04  0.5329001381D-02
  0.2280000000D+03  0.2707700701D-01
  0.6471000000D+02  0.1017180264D+00
  0.2106000000D+02  0.2747400712D+00
  0.7495000000D+01  0.4485641162D+00
  0.2797000000D+01  0.2850740738D+00
  0.5215000000D+00  0.1520400394D-01
  0.1596000000D+00 -0.3191000827D-02
 s    9  1.00
  0.6665000000D+04 -0.1460000642D-03
  0.1000000000D+04 -0.1154000508D-02
  0.2280000000D+03 -0.5725002519D-02
  0.6471000000D+02 -0.2331201026D-01
  0.2106000000D+02 -0.6395502813D-01
  0.7495000000D+01 -0.1499810660D+00
  0.2797000000D+01 -0.1272620560D+00
  0.5215000000D+00  0.5445292395D+00
  0.1596000000D+00  0.5804962554D+00
 s    9  1.00
  0.6665000000D+04  0.0000000000D+00
  0.1000000000D+04  0.0000000000D+00
  0.2280000000D+03  0.0000000000D+00
  0.6471000000D+02  0.0000000000D+00
  0.2106000000D+02  0.0000000000D+00
  0.7495000000D+01  0.0000000000D+00
  0.2797000000D+01  0.0000000000D+00
  0.5215000000D+00  0.0000000000D+00
  0.1596000000D+00  0.1000000000D+01
 p    4  1.00
  0.9439000000D+01  0.3810902127D-01
  0.2002000000D+01  0.2094801169D+00
  0.5456000000D+00  0.5085572839D+00
  0.1517000000D+00  0.4688422617D+00
 p    4  1.00
  0.9439000000D+01  0.0000000000D+00
  0.2002000000D+01  0.0000000000D+00
  0.5456000000D+00  0.0000000000D+00
  0.1517000000D+00  0.1000000000D+01
 d    1  1.00
  0.5500000000D+00  0.1000000000D+01
  
   2 0
 s    4  1.00
  0.1301000000D+02  0.1968498999D-01
  0.1962000000D+01  0.1379769298D+00
  0.4446000000D+00  0.4781477569D+00
  0.1220000000D+00  0.5012397451D+00
 s    4  1.00
  0.1301000000D+02  0.0000000000D+00
  0.1962000000D+01  0.0000000000D+00
  0.4446000000D+00  0.0000000000D+00
  0.1220000000D+00  0.1000000000D+01
 p    1  1.00
  0.7270000000D+00  0.1000000000D+01
  
   3 0
 s    4  1.00
  0.1301000000D+02  0.1968498999D-01
  0.1962000000D+01  0.1379769298D+00
  0.4446000000D+00  0.4781477569D+00
  0.1220000000D+00  0.5012397451D+00
 s    4  1.00
  0.1301000000D+02  0.0000000000D+00
  0.1962000000D+01  0.0000000000D+00
  0.4446000000D+00  0.0000000000D+00
  0.1220000000D+00  0.1000000000D+01
 p    1  1.00
  0.7270000000D+00  0.1000000000D+01
  
   4 0
 s    4  1.00
  0.1301000000D+02  0.1968498999D-01
  0.1962000000D+01  0.1379769298D+00
  0.4446000000D+00  0.4781477569D+00
  0.1220000000D+00  0.5012397451D+00
 s    4  1.00
  0.1301000000D+02  0.0000000000D+00
  0.1962000000D+01  0.0000000000D+00
  0.4446000000D+00  0.0000000000D+00
  0.1220000000D+00  0.1000000000D+01
 p    1  1.00
  0.7270000000D+00  0.1000000000D+01
  
   5 0
 s    9  1.00
  0.6665000000D+04  0.6920001793D-03
  0.1000000000D+04  0.5329001381D-02
  0.2280000000D+03  0.2707700701D-01
  0.6471000000D+02  0.1017180264D+00
  0.2106000000D+02  0.2747400712D+00
  0.7495000000D+01  0.4485641162D+00
  0.2797000000D+01  0.2850740738D+00
  0.5215000000D+00  0.1520400394D-01
  0.1596000000D+00 -0.3191000827D-02
 s    9  1.00
  0.6665000000D+04 -0.1460000642D-03
  0.1000000000D+04 -0.1154000508D-02
  0.2280000000D+03 -0.5725002519D-02
  0.6471000000D+02 -0.2331201026D-01
  0.2106000000D+02 -0.6395502813D-01
  0.7495000000D+01 -0.1499810660D+00
  0.2797000000D+01 -0.1272620560D+00
  0.5215000000D+00  0.5445292395D+00
  0.1596000000D+00  0.5804962554D+00
 s    9  1.00
  0.6665000000D+04  0.0000000000D+00
  0.1000000000D+04  0.0000000000D+00
  0.2280000000D+03  0.0000000000D+00
  0.6471000000D+02  0.0000000000D+00
  0.2106000000D+02  0.0000000000D+00
  0.7495000000D+01  0.0000000000D+00
  0.2797000000D+01  0.0000000000D+00
  0.5215000000D+00  0.0000000000D+00
  0.1596000000D+00  0.1000000000D+01
 p    4  1.00
  0.9439000000D+01  0.3810902127D-01
  0.2002000000D+01  0.2094801169D+00
  0.5456000000D+00  0.5085572839D+00
  0.1517000000D+00  0.4688422617D+00
 p    4  1.00
  0.9439000000D+01  0.0000000000D+00
  0.2002000000D+01  0.0000000000D+00
  0.5456000000D+00  0.0000000000D+00
  0.1517000000D+00  0.1000000000D+01
 d    1  1.00
  0.5500000000D+00  0.1000000000D+01
  
   6 0
 s    4  1.00
  0.1301000000D+02  0.1968498999D-01
  0.1962000000D+01  0.1379769298D+00
  0.4446000000D+00  0.4781477569D+00
  0.1220000000D+00  0.5012397451D+00
 s    4  1.00
  0.1301000000D+02  0.0000000000D+00
  0.1962000000D+01  0.0000000000D+00
  0.4446000000D+00  0.0000000000D+00
  0.1220000000D+00  0.1000000000D+01
 p    1  1.00
  0.7270000000D+00  0.1000000000D+01
  
   7 0
 s    4  1.00
  0.1301000000D+02  0.1968498999D-01
  0.1962000000D+01  0.1379769298D+00
  0.4446000000D+00  0.4781477569D+00
  0.1220000000D+00  0.5012397451D+00
 s    4  1.00
  0.1301000000D+02  0.0000000000D+00
  0.1962000000D+01  0.0000000000D+00
  0.4446000000D+00  0.0000000000D+00
  0.1220000000D+00  0.1000000000D+01
 p    1  1.00
  0.7270000000D+00  0.1000000000D+01
  
   8 0
 s    4  1.00
  0.1301000000D+02  0.1968498999D-01
  0.1962000000D+01  0.1379769298D+00
  0.4446000000D+00  0.4781477569D+00
  0.1220000000D+00  0.5012397451D+00
 s    4  1.00
  0.1301000000D+02  0.0000000000D+00
  0.1962000000D+01  0.0000000000D+00
  0.4446000000D+00  0.0000000000D+00
  0.1220000000D+00  0.1000000000D+01
 p    1  1.00
  0.7270000000D+00  0.1000000000D+01


[MO]
 Sym=      1.1
 Ene=     -11.2332
 Spin= Alpha
 Occup=    2.000000
1 0.70827541087503
2 0.005286861687780
3 -0.005913313873259
4 -0.000000017193305
5 0.000000066224551
6 -0.001416952786374
7 0.000000106177032
8 -0.000000002815615
9 0.000289773274691
10 0.000231795097980
11 0.000232173502083
12 -0.000463968600062
13 0.000000325358154
14 0.000000022152644
15 0.000000071019041
16 -0.000073620994843
17 0.001033682227569
18 0.000137380190750
19 0.000255344917907
20 -0.000124644278054
21 -0.000073208102141
22 0.001033043778242
23 0.000152510710517
24 -0.000246608872698
25 -0.000124627546183
26 -0.000073137267842
27 0.001033200263614
28 -0.000289821251544
29 -0.000008576457766
30 -0.000124575527524
31 0.70798499278540
32 0.005284197079958
33 -0.005909696573551
34 0.000000179361997
35 0.000000048462779
36 0.001416715553720
37 -0.000000279849309
38 -0.000000035221152
39 -0.000290206256145
40 0.000231654136696
41 0.000232077768838
42 -0.000463731905534
43 -0.000000340585500
44 -0.000000034946826
45 -0.000000048980589
46 -0.000073747927926
47 0.001033351037652
48 -0.000152402470437
49 0.000246521789699
50 0.000124665712470
51 -0.000073072620116
52 0.001032893348022
53 0.000289683027910
54 0.000008845816025
55 0.000124483913959
56 -0.000073334812773
57 0.001032723205648
58 -0.000137342281264
59 -0.000255225561855
60 0.000124631333293
 Sym=      2.1
 Ene=     -11.2331
 Spin= Alpha
 Occup=    2.000000
1 0.70824662853268
2 0.006494565715434
3 -0.008817634166743
4 -0.000000026118871
5 -0.000000037952578
6 -0.000581237900847
7 0.000000179299099
8 0.000000401541181
9 -0.001050665812010
10 0.000287834026639
11 0.000288146827466
12 -0.000575980854105
13 0.000000271610965
14 0.000000008171772
15 0.000000084565127
16 0.000153626136191
17 0.000778940584587
18 0.000147847637489
19 0.000274766626353
20 -0.000054761880364
21 0.000154233385258
22 0.000778721683434
23 0.000164037644598
24 -0.000265382786828
25 -0.000054647993063
26 0.000154274061476
27 0.000778598914346
28 -0.000311856602476
29 -0.000009306337830
30 -0.000054664001775
31 -0.70853693914586
32 -0.006496731848234
33 0.008820058574619
34 -0.000000122881637
35 0.000000040741709
36 -0.000581821620021
37 0.000000346249206
38 -0.000000407607496
39 -0.001050545413274
40 -0.000287947634585
41 -0.000288223029195
42 0.000576170663780
43 0.000000279207250
44 0.000000064819517
45 0.000000066676419
46 -0.000153565112466
47 -0.000779342232313
48 0.000164136790423
49 -0.000265487143600
50 -0.000054811655322
51 -0.000154295662228
52 -0.000779049499116
53 -0.000311982372234
54 -0.000009446153310
55 -0.000054714716084
56 -0.000154184176406
57 -0.000779140383387
58 0.000147824104064
59 0.000274876051650
60 -0.000054700835620
 Sym=      3.1
 Ene=      -0.9155
 Spin= Alpha
 Occup=    2.000000
1 -0.019845212703537
2 0.49649608432063
3 -0.11893158121584
4 0.000001495758105
5 0.000012263206581
6 -0.12428341642935
7 0.000001850706581
8 0.000002381886483
9 0.011909261135281
10 -0.001209517959976
11 -0.001208403662758
12 0.002417921622735
13 0.000000843593181
14 0.000000217567734
15 0.000000051297439
16 0.25530160707425
17 -0.10136543778261
18 -0.009310658478242
19 -0.017303288839502
20 0.002158408922935
21 0.25525610168464
22 -0.10134115998769
23 -0.010325368757230
24 0.016714011218375
25 0.002160623897026
26 0.25525562249753
27 -0.10133984054030
28 0.019637424466914
29 0.000591325746418
30 0.002158778015802
31 -0.019845207432956
32 0.49649579158493
33 -0.11893154428022
34 0.000019233945241
35 0.000010380165832
36 0.12428344202393
37 -0.000005579675258
38 0.000001312172276
39 -0.011909317267427
40 -0.001209262845992
41 -0.001208670028565
42 0.002417932874557
43 -0.000000790084974
44 -0.000000475435168
45 -0.000000063399093
46 0.25529895895782
47 -0.10136489269557
48 0.010333195882354
49 -0.016712378260922
50 -0.002160108239860
51 0.25526120259052
52 -0.10134099795261
53 -0.019638005870181
54 -0.000589949740785
55 -0.002156558579863
56 0.25525288593668
57 -0.10134040485389
58 0.009301835398958
59 0.017304290918311
60 -0.002161164661736
 Sym=      4.1
 Ene=      -0.8660
 Spin= Alpha
 Occup=    2.000000
1 -0.014640316125896
2 0.53123921371523
3 -0.12880054993622
4 -0.000000923404207
5 0.000001253958778
6 -0.11902785692623
7 0.000002712141580
8 0.000005327208404
9 0.020262003160919
10 0.004221498510296
11 0.004222862138090
12 -0.008444360648386
13 0.000001091422759
14 -0.000000398302220
15 0.000000078745334
16 0.26378275222955
17 -0.10665055384416
18 -0.009115002804083
19 -0.016939852607341
20 0.003719371966588
21 0.26375150194133
22 -0.10662744803807
23 -0.010109085477128
24 0.016363556948966
25 0.003721397573805
26 0.26374662102395
27 -0.10662589251016
28 0.019225692070870
29 0.000578525337056
30 0.003719841258248
31 0.014640323790743
32 -0.53123935092888
33 0.12880062072494
34 -0.000009475267786
35 -0.000001827480898
36 -0.11902808517026
37 0.000007618522756
38 -0.000005053119066
39 0.020262069741981
40 -0.004221478157480
41 -0.004222885383930
42 0.008444363541410
43 0.000001302626498
44 0.000000504359637
45 -0.000000118474183
46 -0.26378657717105
47 0.10665283472168
48 -0.010116062881764
49 0.016361748519386
50 0.003720894651878
51 -0.26374322635883
52 0.10662334167441
53 0.019225664863749
54 0.000577942872817
55 0.003717831606930
56 -0.26375148962202
57 0.10662785788071
58 -0.009106951710527
59 -0.016941838339769
60 0.003721902702032
 Sym=      5.1
 Ene=      -0.5736
 Spin= Alpha
 Occup=    2.000000
1 -0.000001230856188
2 0.000016308147939
3 -0.000006864221789
4 -0.003729961725998
5 0.44601560305921
6 0.000031981641976
7 0.000609723260051
8 -0.076012023696794
9 -0.000007924945809
10 -0.001086041116881
11 0.001085400664114
12 0.000000640452767
13 0.015375505998470
14 0.000038212282813
15 -0.005757111930027
16 0.37603522892705
17 -0.10801600728060
18 -0.009445606310354
19 -0.008674419056980
20 0.004715940615113
21 -0.36678325256396
22 0.10535604985200
23 0.010067466682165
24 -0.007670282604627
25 -0.004599332739124
26 -0.009300323699252
27 0.002668568924516
28 -0.000562423212034
29 0.008729932150056
30 -0.000117049525560
31 -0.000001276247251
32 0.000011580420322
33 -0.000005679754501
34 -0.004573700822056
35 0.44600653475782
36 -0.000024954305980
37 0.000805768242054
38 -0.076008417431937
39 0.000005391025671
40 0.001072746889357
41 -0.001074000361804
42 0.000001253472447
43 -0.015374692763967
44 -0.000069538832732
45 0.005758121056182
46 0.36714295884091
47 -0.10546259483147
48 0.010065917080401
49 -0.007682412583871
50 -0.004605731121793
51 0.008505938067780
52 -0.002446153820858
53 -0.000536726188259
54 0.008730964973980
55 -0.000105987406001
56 -0.37570086146330
57 0.10791880837590
58 -0.009446758493021
59 -0.008663901647457
60 0.004711927498887
 Sym=      6.1
 Ene=      -0.5735
 Spin= Alpha
 Occup=    2.000000
1 -0.000000553145288
2 0.000006406988127
3 -0.000005404398233
4 0.44600481267475
5 0.004581974715193
6 0.000009464859944
7 -0.075985599655484
8 -0.000809716590608
9 -0.000001065281463
10 -0.013321164279589
11 0.013319620591520
12 0.000001543688069
13 -0.001227078708660
14 -0.005755908385972
15 -0.000069352214283
16 0.20713973444145
17 -0.059487507814272
18 0.003581977886967
19 -0.009504615016371
20 0.002598535488417
21 0.22170494356036
22 -0.063678589939048
23 0.002616536320090
24 0.010011552298114
25 0.002779832434463
26 -0.42888217084806
27 0.12317586043551
28 -0.013804985820039
29 -0.000588900066211
30 -0.005377684338888
31 0.000000575646878
32 -0.000023276556619
33 0.000006127074069
34 0.44601271101767
35 0.003720860951140
36 -0.000038610692235
37 -0.075989005911600
38 -0.000604486388798
39 0.000009239192290
40 0.013320666866831
41 -0.013317898904173
42 -0.000002767962658
43 0.001266427693253
44 0.005754884141133
45 0.000037228317204
46 -0.22255626578663
47 0.063914849426024
48 0.002589096673882
49 0.010029611971352
50 0.002791875984872
51 0.42885686099533
52 -0.12316728358768
53 -0.013803728195063
54 -0.000604698569547
55 -0.005375872028177
56 -0.20627681361956
57 0.059247381567590
58 0.003608779902729
59 -0.009484450599050
60 0.002585770909581
 Sym=      7.1
 Ene=      -0.5271
 Spin= Alpha
 Occup=    2.000000
1 -0.000000526449690
2 0.000030603456217
3 -0.000014578003341
4 -0.008368944700349
5 0.45917829201234
6 0.000022698205190
7 0.001489589815201
8 -0.083222697152005
9 -0.000008170605580
10 -0.001084782784964
11 0.001086471696011
12 -0.000001688911047
13 0.017485029056916
14 0.000311101022935
15 -0.017602516375178
16 0.40501218250949
17 -0.097988924274723
18 -0.009837014273690
19 -0.008300098018884
20 0.006094861290585
21 -0.39956058566279
22 0.096667756828893
23 0.010395980260985
24 -0.007458169386791
25 -0.006011889390746
26 -0.005480410945681
27 0.001323657004832
28 -0.000452233536587
29 0.009646978671596
30 -0.000082833141904
31 0.000000403137185
32 -0.000029328616005
33 0.000014589772481
34 0.007545305486559
35 -0.45917937066919
36 0.000011763893153
37 -0.001394700918192
38 0.083222694026537
39 -0.000004399668620
40 -0.001125835536386
41 0.001124307204371
42 0.000001528332016
43 0.017479917609766
44 0.000299382502809
45 -0.017604821130826
46 -0.39907579205482
47 0.096552658125634
48 -0.010405793082803
49 0.007432763446640
50 0.006006874103787
51 -0.006356262784065
52 0.001540385697575
53 0.000478117481149
54 -0.009645817162820
55 0.000095023110060
56 0.40545779674283
57 -0.098094327995362
58 0.009822717102788
59 0.008324225666922
60 -0.006101427427752
 Sym=      8.1
 Ene=      -0.5270
 Spin= Alpha
 Occup=    2.000000
1 -0.000000230922010
2 0.000019877366764
3 -0.000006197824596
4 0.45917529913929
5 0.007555287178164
6 -0.000005603260517
7 -0.083189077363279
8 -0.001393797726332
9 0.000003380933844
10 -0.015143859959797
11 0.015144729258937
12 -0.000000869299141
13 -0.001287418226533
14 -0.017602869962148
15 -0.000299031596512
16 0.22683478503434
17 -0.054870695214104
18 0.004244637744991
19 -0.009896514216881
20 0.003413458865187
21 0.23764563748907
22 -0.057482752598758
23 0.003368738315250
24 0.010336078394237
25 0.003575615423917
26 -0.46449150514284
27 0.11235301640083
28 -0.013716973827293
29 -0.000545159514562
30 -0.006988247418731
31 -0.000000781974918
32 0.000015412223302
33 -0.000001153391348
34 -0.45917582582585
35 -0.008359013353924
36 0.000040827153660
37 0.083189232364432
38 0.001489447576789
39 -0.000013100135754
40 -0.015148555239066
41 0.015145934067916
42 0.000002621171149
43 -0.001265820201081
44 -0.017600621902143
45 -0.000310645907028
46 0.23708693540331
47 -0.057349887055892
48 -0.003379350875697
49 -0.010326689828011
50 -0.003567728056119
51 -0.46452006105346
52 0.11236053213368
53 0.013719451404881
54 0.000526183828392
55 0.006987143288241
56 0.22739846353224
57 -0.055003708778118
58 -0.004236371519449
59 0.009906567907517
60 -0.003420855135739
 Sym=      9.1
 Ene=      -0.4046
 Spin= Alpha
 Occup=    1.927780
1 -0.004551759984718
2 0.19290960276891
3 0.028910284957087
4 -0.000001732227785
5 -0.000048143932025
6 0.56033373283838
7 0.000002956741093
8 0.000002738615994
9 -0.005992523276367
10 -0.013314498596427
11 -0.013315688781998
12 0.026630187378425
13 -0.000001983118549
14 -0.000002492615356
15 -0.000002076189012
16 -0.079977967553054
17 0.002383525781140
18 0.001084813024716
19 0.002015207514402
20 0.010037058143909
21 -0.079948099584363
22 0.002392316593628
23 0.001203542611352
24 -0.001947771669681
25 0.010035608162596
26 -0.079956403640821
27 0.002385805836803
28 -0.002287477840939
29 -0.000069059697820
30 0.010035662143659
31 -0.004551757156144
32 0.19290994558253
33 0.028910297728457
34 -0.000049829607839
35 -0.000034299757948
36 -0.56033371749153
37 -0.000002691437943
38 0.000002714296280
39 0.005992536102360
40 -0.013314628708872
41 -0.013315545503451
42 0.026630174212323
43 0.000001820612050
44 -0.000001119402102
45 0.000001819476894
46 -0.079974968978739
47 0.002388219850947
48 -0.001205286713397
49 0.001946751812363
50 -0.010037027329815
51 -0.079957487598451
52 0.002379430577338
53 0.002286089599937
54 0.000068754023652
55 -0.010035619752132
56 -0.079950095684344
57 0.002394081309152
58 -0.001085542576125
59 -0.002016359088395
60 -0.010035666852505
 Sym=     10.1
 Ene=       0.3106
 Spin= Alpha
 Occup=    0.072220
1 0.038078349326491
2 0.50201373151708
3 -0.020177396669081
4 -0.000010070929571
5 -0.000067650700682
6 0.89729393077070
7 0.000002809975098
8 0.000016248608582
9 -0.099488758445612
10 -0.021849220227766
11 -0.021851977835739
12 0.043701198063505
13 -0.000002762426308
14 0.000000007383080
15 -0.000009998484058
16 -0.047556270341529
17 0.012289774248152
18 0.000218745197539
19 0.000406061879224