    7  
step number 0
C	-0.001010	-0.062010	-0.710800
C	-0.001270	-0.077590	0.621070
 H	0.923060	-0.062060	-1.277040
 H	-0.924560	-0.031210	-1.277040
 H	0.920690	-0.137940	1.188120
 H	-0.924700	-0.107310	1.188150
 H	0.032590	2.000700	1.246170
    7  
step number 1
C	-0.001010	-0.061990	-0.710850
C	-0.001250	-0.076160	0.621530
 H	0.923070	-0.062070	-1.277040
 H	-0.924570	-0.031220	-1.277040
 H	0.920670	-0.138950	1.188350
 H	-0.924720	-0.108330	1.188380
 H	0.032330	1.985570	1.240910
    7  
step number 2
C	-0.001000	-0.061990	-0.710930
C	-0.001220	-0.074710	0.622000
 H	0.923090	-0.062080	-1.277050
 H	-0.924580	-0.031240	-1.277050
 H	0.920640	-0.140030	1.188580
 H	-0.924730	-0.109430	1.188600
 H	0.032070	1.970460	1.235730
    7  
step number 3
C	-0.001000	-0.061990	-0.711020
C	-0.001200	-0.073240	0.622490
 H	0.923100	-0.062100	-1.277070
 H	-0.924590	-0.031250	-1.277080
 H	0.920620	-0.141200	1.188810
 H	-0.924740	-0.110610	1.188830
 H	0.031820	1.955370	1.230610
    7  
step number 4
C	-0.001000	-0.062010	-0.711130
C	-0.001170	-0.071750	0.622990
 H	0.923110	-0.062120	-1.277110
 H	-0.924610	-0.031270	-1.277120
 H	0.920590	-0.142440	1.189030
 H	-0.924750	-0.111870	1.189050
 H	0.031550	1.940320	1.225550
    7  
step number 5
C	-0.001000	-0.062040	-0.711250
C	-0.001150	-0.070230	0.623510
 H	0.923130	-0.062150	-1.277160
 H	-0.924620	-0.031290	-1.277170
 H	0.920560	-0.143770	1.189250
 H	-0.924770	-0.113200	1.189260
 H	0.031290	1.925290	1.220550
    7  
step number 6
C	-0.001000	-0.062080	-0.711400
C	-0.001120	-0.068690	0.624050
 H	0.923140	-0.062180	-1.277230
 H	-0.924630	-0.031300	-1.277230
 H	0.920520	-0.145180	1.189470
 H	-0.924780	-0.114610	1.189480
 H	0.031020	1.910300	1.215600
    7  
step number 7
C	-0.001000	-0.062130	-0.711570
C	-0.001090	-0.067130	0.624610
 H	0.923160	-0.062220	-1.277310
 H	-0.924650	-0.031310	-1.277310
 H	0.920480	-0.146660	1.189680
 H	-0.924780	-0.116090	1.189690
 H	0.030740	1.895340	1.210690
    7  
step number 8
C	-0.001000	-0.062190	-0.711770
C	-0.001060	-0.065550	0.625190
 H	0.923170	-0.062270	-1.277410
 H	-0.924660	-0.031310	-1.277410
 H	0.920440	-0.148220	1.189890
 H	-0.924790	-0.117610	1.189900
 H	0.030450	1.880420	1.205830
    7  
step number 9
C	-0.001000	-0.062270	-0.711950
C	-0.001030	-0.063960	0.625760
 H	0.923150	-0.062340	-1.277470
 H	-0.924630	-0.031280	-1.277460
 H	0.920410	-0.149830	1.190090
 H	-0.924810	-0.118970	1.190120
 H	0.030040	1.865490	1.200980
    7  
step number 10
C	0.000000	0.000000	0.000000
C	0.000000	0.000000	1.338630
 H	0.924210	0.000000	-0.565420
 H	-0.923690	0.031050	-0.565420
 H	0.921350	-0.089200	1.902520
 H	-0.923790	-0.058350	1.902550
 H	0.030810	1.913010	1.908460
    7  
step number 11
C	-0.001000	-0.062430	-0.712450
C	-0.000980	-0.060730	0.627030
 H	0.923180	-0.062360	-1.277720
 H	-0.924670	-0.031310	-1.277720
 H	0.920310	-0.153270	1.190500
 H	-0.924820	-0.122440	1.190520
 H	0.029580	1.835810	1.191450
    7  
step number 12
C	-0.001010	-0.062500	-0.712760
C	-0.000960	-0.059100	0.627740
 H	0.923240	-0.062300	-1.277910
 H	-0.924730	-0.031390	-1.277920
 H	0.920220	-0.155080	1.190720
 H	-0.924810	-0.124550	1.190710
 H	0.029530	1.821110	1.186760
    7  
step number 13
C	-0.001010	-0.062590	-0.713070
C	-0.000940	-0.057450	0.628430
 H	0.923270	-0.062270	-1.278070
 H	-0.924750	-0.031410	-1.278080
 H	0.920150	-0.156950	1.190920
 H	-0.924810	-0.126480	1.190910
 H	0.029330	1.806390	1.182070
    7  
step number 14
C	-0.001010	-0.062680	-0.713400
C	-0.000910	-0.055790	0.629160
 H	0.923290	-0.062260	-1.278240
 H	-0.924770	-0.031430	-1.278260
 H	0.920080	-0.158880	1.191120
 H	-0.924810	-0.128440	1.191100
 H	0.029110	1.791710	1.177390
    7  
step number 15
C	-0.001010	-0.062780	-0.713760
C	-0.000890	-0.054130	0.629900
 H	0.923310	-0.062240	-1.278430
 H	-0.924790	-0.031440	-1.278440
 H	0.920000	-0.160870	1.191310
 H	-0.924800	-0.130460	1.191290
 H	0.028890	1.777080	1.172730
    7  
step number 16
C	-0.001010	-0.062890	-0.714140
C	-0.000860	-0.052450	0.630680
 H	0.923330	-0.062230	-1.278620
 H	-0.924810	-0.031450	-1.278640
 H	0.919920	-0.162920	1.191500
 H	-0.924780	-0.132530	1.191480
 H	0.028660	1.762500	1.168070
    7  
step number 17
C	-0.001020	-0.063000	-0.714550
C	-0.000830	-0.050770	0.631480
 H	0.923360	-0.062210	-1.278830
 H	-0.924840	-0.031450	-1.278850
 H	0.919830	-0.165030	1.191690
 H	-0.924770	-0.134650	1.191660
 H	0.028440	1.747970	1.163430
    7  
step number 18
C	-0.001020	-0.063120	-0.714980
C	-0.000810	-0.049070	0.632300
 H	0.923380	-0.062190	-1.279040
 H	-0.924860	-0.031450	-1.279060
 H	0.919730	-0.167180	1.191870
 H	-0.924740	-0.136810	1.191840
 H	0.028210	1.733480	1.158800
    7  
step number 19
C	-0.001020	-0.063240	-0.715440
C	-0.000780	-0.047370	0.633160
 H	0.923400	-0.062180	-1.279270
 H	-0.924880	-0.031440	-1.279290
 H	0.919630	-0.169380	1.192050
 H	-0.924720	-0.139020	1.192020
 H	0.027980	1.719050	1.154180
    7  
step number 20
C	-0.001020	-0.063360	-0.715910
C	-0.000750	-0.045670	0.634030
 H	0.923430	-0.062150	-1.279500
 H	-0.924910	-0.031420	-1.279520
 H	0.919520	-0.171620	1.192220
 H	-0.924680	-0.141270	1.192190
 H	0.027750	1.704660	1.149560
