
 Working directory              : /scratch/cc/139155/molpro.76dAVP0j5J/
 Global scratch directory       : /scratch/cc/139155/molpro.76dAVP0j5J/
 Wavefunction directory         : /home/chimica2/cavallotti/wfu/
 Main file repository           : /scratch/cc/139155/molpro.76dAVP0j5J/

 id        : polimi

 Nodes     nprocs
 node-6-11    4
 GA implementation: MPI file
 GA implementation (serial work in mppx): MPI file

 Using customized tuning parameters: mindgm=1; mindgv=20; mindgc=4; mindgr=1; noblas=0; minvec=7
 default implementation of scratch files=sf  


 Variables initialized (1015), CPU time= 0.01 sec
  memory,         400 ,m
   nosym
  geometry={angstrom
    C1
    H2   C1   R1
    H3   C1   R2   H2   A2
    H4   C1   R3   H2   A3   H3   D3
    C21 C1 BB H2 ANG1 H3 DH1
    H22 C21 R21 C1 ANG2 H2 DH2
    H23 C21 R22 H22 A22 C1 DH3
    H24 C21 R23 H22 A23 H23 D23
  }
  R1                             =    1.0782000000000000
  R2                             =    1.0782000000000000
  R3                             =    1.0782000000000000
  A2                             =    119.97640000000000
  A3                             =    120.02589999999999
  D3                             =    179.67490000000001
  R21                            =    1.0782000000000000
  R22                            =    1.0783000000000000
  R23                            =    1.0782000000000000
  A22                            =    119.96070000000000
  A23                            =    120.02620000000000
  D23                            =    180.35630000000000
  ANG2                           =    89.843500000000006
  DH3                            =    89.194800000000001
  DH2                            =    59.547400000000003
  DH1                            =    89.344200000000001
  ANG1                           =    89.879700000000000
  BB                             =    4.0000000000000000
 
   basis=cc-pvdz
   {multi;closed, 8;occ,10;wf, 18,1,0,;state,1;maxiter,40}
   {RS2,SHIFT=0.2;ORBITAL,IGNORE_ERROR;STATE,1}
   CBSen = energy
  put,molden,molpro.molden
 Commands initialized (834), CPU time= 0.01 sec, 672 directives.
 Default parameters read. Elapsed time= 0.13 sec

 Checking input...
 Passed
1


                                         ***  PROGRAM SYSTEM MOLPRO  ***
                                       Copyright, TTI GmbH Stuttgart, 2015
                                    Version 2022.2 linked Thu Sep 29 12:37:28 2022


 **********************************************************************************************************************************
 LABEL *                                                                                 
  64 bit mpp version                                                                     DATE: 27-May-23          TIME: 09:32:06  
 **********************************************************************************************************************************

 SHA1:             51306cdc306ce2a111a2867affebcb289530e0a7
 **********************************************************************************************************************************

 Memory per process:       400 MW
 Total memory per node:   1600 MW

 GA preallocation disabled
 GA check disabled

 Variable memory set to 400.0 MW

 ZSYMEL=NOSYM

 SETTING R1             =         1.07820000                                  
 SETTING R2             =         1.07820000                                  
 SETTING R3             =         1.07820000                                  
 SETTING A2             =       119.97640000                                  
 SETTING A3             =       120.02590000                                  
 SETTING D3             =       179.67490000                                  
 SETTING R21            =         1.07820000                                  
 SETTING R22            =         1.07830000                                  
 SETTING R23            =         1.07820000                                  
 SETTING A22            =       119.96070000                                  
 SETTING A23            =       120.02620000                                  
 SETTING D23            =       180.35630000                                  
 SETTING ANG2           =        89.84350000                                  
 SETTING DH3            =        89.19480000                                  
 SETTING DH2            =        59.54740000                                  
 SETTING DH1            =        89.34420000                                  
 SETTING ANG1           =        89.87970000                                  
 SETTING BB             =         4.00000000                                  
 SETTING BASIS          =    CC-PVDZ


 Recomputing integrals since basis changed


 Using spherical harmonics

 Library entry C      S cc-pVDZ              selected for orbital group  1
 Library entry C      P cc-pVDZ              selected for orbital group  1
 Library entry C      D cc-pVDZ              selected for orbital group  1
 Library entry H      S cc-pVDZ              selected for orbital group  2
 Library entry H      P cc-pVDZ              selected for orbital group  2


 PROGRAM * SEWARD (Integral evaluation for generally contracted gaussian basis sets)     Author: Roland Lindh, 1990

 Geometry written to block  1 of record 700

 Orientation using atomic masses  
 Molecule type: Asymmetric top
 Rotational constants:       4.0838690      4.0839206     71.8855810 GHz  (calculated with average atomic masses)

 Point group  C1  



 ATOMIC COORDINATES

 NR  ATOM    CHARGE       X              Y              Z

   1  C1      6.00    0.000293551   -0.000472144   -3.779419699
   2  H2      1.00   -0.507420863    1.972755482   -3.775407919
   3  H3      1.00    1.963141359   -0.546650823   -3.761127214
   4  H4      1.00   -1.454048955   -1.427410907   -3.791704951
   5  C21     6.00   -0.000350985    0.000381836    3.779484724
   6  H22     1.00   -1.958687876    0.562787663    3.773688890
   7  H23     1.00    1.465061846    1.416102780    3.757420516
   8  H24     1.00    0.492638893   -1.976508052    3.796355820

 Bond lengths in Bohr (Angstrom)

 1-2  2.037502708  1-3  2.037502708  1-4  2.037502708  5-6  2.037502708  5-7  2.037691680
     ( 1.078200000)     ( 1.078200000)     ( 1.078200000)     ( 1.078200000)     ( 1.078300000)

 5-8  2.037502708
     ( 1.078200000)

 Bond angles

  2-1-3  119.97640000   2-1-4  120.02590000   3-1-4  119.99690129   6-5-7  119.96070000

  6-5-8  120.02620000   7-5-8  120.01214033

 NUCLEAR CHARGE:                   18
 NUMBER OF PRIMITIVE AOS:          96
 NUMBER OF SYMMETRY AOS:           94
 NUMBER OF CONTRACTIONS:           58   (   58A   )
 NUMBER OF INNER CORE ORBITALS:     0   (    0A   )
 NUMBER OF OUTER CORE ORBITALS:     2   (    2A   )
 NUMBER OF VALENCE ORBITALS:       14   (   14A   )


 NUCLEAR REPULSION ENERGY   29.84831123


 Eigenvalues of metric

         1 0.148E-01 0.152E-01 0.349E-01 0.349E-01 0.355E-01 0.355E-01 0.418E-01 0.424E-01


 Contracted 2-electron integrals neglected if value below      1.0D-11
 AO integral compression algorithm  1   Integral accuracy      1.0D-11

     6.554 MB (compressed) written to integral file ( 47.9%)

     Node minimum: 1.573 MB, node maximum: 1.835 MB


 NUMBER OF SORTED TWO-ELECTRON INTEGRALS:     365512.     BUFFER LENGTH:  32768
 NUMBER OF SEGMENTS:   1  SEGMENT LENGTH:     365512      RECORD LENGTH: 524288

 Memory used in sort:       0.92 MW

 SORT1 READ     1640811. AND WROTE      316329. INTEGRALS IN      1 RECORDS. CPU TIME:     0.03 SEC, REAL TIME:     0.04 SEC
 SORT2 READ     1263364. AND WROTE     1464616. INTEGRALS IN     24 RECORDS. CPU TIME:     0.01 SEC, REAL TIME:     0.03 SEC

 Node minimum:      365512.  Node maximum:      366796. integrals

 OPERATOR DM      FOR CENTER  0  COORDINATES:    0.000000    0.000000    0.000000


 **********************************************************************************************************************************
 DATASETS  * FILE   NREC   LENGTH (MB)   RECORD NAMES
              1      18       28.78       500      610      700      900      950      970     1000      129      960     1100   
                                          VAR    BASINP    GEOM    SYMINP    ZMAT    AOBASIS   BASIS     P2S    ABASIS      S 
                                         1400     1410     1200     1210     1080     1600     1650     1700   
                                           T        V       H0       H01     AOSYM     SMH    MOLCAS    OPER   

 PROGRAMS   *        TOTAL       INT
 CPU TIMES  *         0.43      0.30
 REAL TIME  *         0.88 SEC
 DISK USED  *        29.15 MB (local),      137.31 MB (total)
 GA USED    *         0.00 MB       (max)       0.00 MB       (current)
 **********************************************************************************************************************************

 PROGRAM * MULTI (Direct Multiconfiguration SCF)       Authors: P.J. Knowles, H.-J. Werner (1984)
                                                                D.A. Kreplin, P.J. Knowles, H.-J. Werner (2019)

 Number of closed-shell orbitals:   8 (    8)
 Number of active  orbitals:        2 (    2)
 Number of external orbitals:      48 (   48)

 State symmetry 1

 Number of active electrons:   2    Spin symmetry=Singlet   Space symmetry=1
 Number of states:             1
 Number of CSFs:               3   (4 determinants, 4 intermediate states)

 Orbital guess generated from atomic densities. Full valence occupancy:   16

 Wavefunction dump at record             2140.2

 Convergence thresholds  0.10E-04 (gradient)  0.10E-05 (energy)
 
 Number of orbital rotations:  496  ( 16 closed/active, 384 closed/virtual, 0 active/active, 96 active/virtual )
 Total number of variables:    500
 
 Second-order MCSCF: L-BFGS accelerated
 
 ITER  MIC  NCI  NEG     ENERGY(VAR)    ENERGY(PROJ) ENERGY CHANGE       GRAD(0)  GRAD(ORB)   GRAD(CI)      STEP      TIME
   1    6    4    0    -79.10544866     -79.12006081   -0.01461214    0.17748228 0.00000755 0.00000000  0.89E-01      0.30
   2    8    6    0    -79.11998757     -79.11999026   -0.00000270    0.00242259 0.00000000 0.00000000  0.13E-02      0.76
   3    3    3    0    -79.11999026     -79.11999026   -0.00000000    0.00000073 0.00000001 0.00000000  0.38E-06      1.01

 CONVERGENCE REACHED!  Final gradient:    0.00000000 ( 0.36E-09)
                       Final energy:    -79.11999026
 
 First order charge density matrix for state 1.1 saved on record 2140.2 (density set 1)
 
 Results for state 1.1
 =====================
 !MCSCF STATE 1.1 Energy                       -79.119990262912
 Nuclear energy                                 29.84831123
 Kinetic energy                                 78.98372435
 One electron energy                          -164.15238565
 Two electron energy                            55.18408415
 Virial ratio                                    2.00172524
 
 !MCSCF STATE 1.1 Dipole moment                 -0.00001775    -0.00001055    -0.00014089
 Dipole moment /Debye                           -0.00004511    -0.00002682    -0.00035812
 
 No non-zero expectation values
 
 
 Natural orbital dump at molpro section 2140.2 (Orbital set 2)


 **********************************************************************************************************************************
 DATASETS  * FILE   NREC   LENGTH (MB)   RECORD NAMES
              1      19       30.97       500      610      700      900      950      970     1000      129      960     1100   
                                          VAR    BASINP    GEOM    SYMINP    ZMAT    AOBASIS   BASIS     P2S    ABASIS      S 
                                         1400     1410     1200     1210     1080     1600     1650     1700     1380   
                                           T        V       H0       H01     AOSYM     SMH    MOLCAS    OPER     JKOP   

              2       4        0.54       700     1000      520     2140   
                                         GEOM     BASIS   MCVARS    MCSCF   

 PROGRAMS   *        TOTAL     MULTI       INT
 CPU TIMES  *         0.89      0.46      0.30
 REAL TIME  *         2.03 SEC
 DISK USED  *        31.56 MB (local),      146.94 MB (total)
 SF USED    *         7.24 MB
 GA USED    *         0.00 MB       (max)       0.00 MB       (current)
 **********************************************************************************************************************************


 PROGRAM * RS2 (Multireference RS Perturbation Theory)     Authors: H.-J. Werner (1993), P. Celani (1998)


 Level shift= 0.20

 Convergence thresholds:  THRVAR = 1.00D-08  THRDEN = 1.00D-06

 Number of optimized states: 1  Roots:    1
 Number of reference states: 1  Roots:    1

 Reference symmetry:                   1   Singlet 
 Number of electrons:                 18
 Maximum number of shells:             4
 Maximum number of spin couplings:     5

 Reference space:        3 conf        3 CSFs
 N elec internal:       36 conf       36 CSFs
 N-1 el internal:       62 conf       98 CSFs
 N-2 el internal:       76 conf      184 CSFs

 Number of electrons in valence space:                     14
 Maximum number of open shell orbitals in reference space:  2
 Maximum number of open shell orbitals in internal spaces:  6


 Number of core orbitals:           2 (   2 )
 Number of closed-shell orbitals:   6 (   6 )
 Number of active  orbitals:        2 (   2 )
 Number of external orbitals:      48 (  48 )

 Molecular orbitals read from record     2140.2  Type=MCSCF/NATURAL (state 1.1)

 Integral transformation finished. Total CPU:   0.02 sec, npass=  1  Memory used:   0.33 MW


 Number of p-space configurations:   3

 Reference wavefunction optimized for reference space (refopt=1)

 State     Reference Energy 
     1       -79.11999026

 Number of blocks in overlap matrix:     2   Smallest eigenvalue:  0.10D+01
 Number of N-2 electron functions:      61
 Number of N-1 electron functions:      98

 Number of internal configurations:                   36
 Number of singly external configurations:          4704
 Number of doubly external configurations:         70440
 Total number of contracted configurations:        75180
 Total number of uncontracted configurations:     216660

 Weight factors for SA-density in H0:    1.000000

 FIMAX=  0.46D-03  FXMAX=  0.47D-13  DIAG=  F  T  NOREF=1  NOINT=0  IHPPD=2

 Nuclear energy:                      29.84831123
 Core energy:                        -74.78597741
 Zeroth-order valence energy:         -8.34245058
 Zeroth-order total energy:          -53.28011676
 First-order energy:                 -25.83987350

 Using uncontracted singles

 Diagonal Coupling coefficients finished.               Storage:    3121 words, CPU-Time:      0.00 seconds.
 Energy denominators for pairs finished in 0 passes.    Storage:    7322 words, CPU-time:      0.00 seconds.

 A level shift of 0.20 is applied.

  ITER. STATE  ROOT     SQ.NORM     CORR.ENERGY   TOTAL ENERGY   ENERGY CHANGE       DEN1      VAR(S)    VAR(P)      TIME
    1     1     1     1.01059055    -0.00211811   -79.12210837    -0.00211811    -0.25209346  0.11D-01  0.72D-01     0.04
    2     1     1     1.08289696    -0.26843385   -79.38842411    -0.26631574     0.00011111  0.31D-04  0.11D-04     0.04
    3     1     1     1.08284615    -0.26849275   -79.38848301    -0.00005890    -0.00002922  0.45D-07  0.69D-07     0.05
    4     1     1     1.08288250    -0.26850023   -79.38849049    -0.00000748     0.00000023  0.52D-09  0.89D-10     0.06
    5     1     1     1.08288248    -0.26850022   -79.38849049     0.00000000    -0.00000007  0.55D-12  0.14D-11     0.08

 Energies without level shift correction:

    5     1     1     1.08288248    -0.25192373   -79.37191399

 Energy contributions for state 1.1:
 ===================================

            Energy contr.      SQ.Norm of FOWF
 Space I     -0.00004228          0.00002647
 Space S     -0.02301325          0.01051489
 Space P     -0.22886820          0.07234112


 =====================================
 Analysis of CPU times by interactions
 =====================================

       I      S      P

 I   0.0%
 S   0.0%   0.0%
 P   0.0%   0.0%  25.0%

 Initialization:  37.5%
 Other:           37.5%

 Total CPU:        0.1 seconds
 =====================================



 Reference coefficients greater than 0.0500000
 =============================================
 22222220           0.7535210
 22222202          -0.6574238


 RESULTS FOR STATE 1.1
 =====================

 Coefficient of reference function:   C(0) = 1.00000000 (fixed)   1.00000000 (relaxed)

 Energy contributions of configuration classes

 CLASS          SQ.NORM        ECORR1        ECORR2
 +++++++++++++++++++++++++++++++++++++++++++++++++++
 Internals    0.00002647   -0.00004228    0.26841011
 Singles      0.01051489   -0.02301325   -0.04905503
 Pairs        0.07234112   -0.22886820   -0.48785530
 Total        1.08288248   -0.25192373   -0.26850022
 +++++++++++++++++++++++++++++++++++++++++++++++++++


 Reference energy                     -79.11999026
 Nuclear energy                        29.84831123
 Kinetic energy                        79.15907435
 One electron energy                 -164.02850202
 Two electron energy                   54.79170030
 Virial quotient                       -1.00289817
 Correlation energy                    -0.26850022
 !RSPT2 STATE 1.1 Energy              -79.388490486327

 Properties without orbital relaxation:

 !RSPT2 STATE 1.1 Dipole moment        -0.00001568    -0.00000738    -0.00014426
 Dipole moment /Debye                  -0.00003986    -0.00001876    -0.00036668


 **********************************************************************************************************************************
 DATASETS  * FILE   NREC   LENGTH (MB)   RECORD NAMES
              1      19       30.97       500      610      700      900      950      970     1000      129      960     1100   
                                          VAR    BASINP    GEOM    SYMINP    ZMAT    AOBASIS   BASIS     P2S    ABASIS      S 
                                         1400     1410     1200     1210     1080     1600     1650     1700     1380   
                                           T        V       H0       H01     AOSYM     SMH    MOLCAS    OPER     JKOP   

              2       4        0.54       700     1000      520     2140   
                                         GEOM     BASIS   MCVARS    MCSCF   

 PROGRAMS   *        TOTAL       RS2     MULTI       INT
 CPU TIMES  *         1.04      0.14      0.46      0.30
 REAL TIME  *         2.51 SEC
 DISK USED  *        31.56 MB (local),      146.94 MB (total)
 SF USED    *         8.79 MB
 GA USED    *         0.00 MB       (max)       0.00 MB       (current)
 **********************************************************************************************************************************
 SETTING CBSEN          =       -79.38849049  AU                              

 Dump information in style MOLDEN to molpro.molden                                                                   

 Molecular orbitals read from record     2140.2  Type=MCSCF/NATURAL (state 1.1)
 Occupation numbers read from record     2140.2  Type=MCSCF/NATURAL (state 1.1)
 Orbital energies read from record       2140.2  Type=MCSCF/NATURAL (state 1.1)
 Redundancy group numbers read from rec  2140.2  Type=MCSCF/NATURAL (state 1.1)

 DUMP ORBITAL  1.1 AS ORBITAL    1  occ=    2.0000  eig=  -11.2275  GROUP=   2
 DUMP ORBITAL  2.1 AS ORBITAL    2  occ=    2.0000  eig=  -11.2275  GROUP=   2
 DUMP ORBITAL  3.1 AS ORBITAL    3  occ=    2.0000  eig=   -0.8978  GROUP=   2
 DUMP ORBITAL  4.1 AS ORBITAL    4  occ=    2.0000  eig=   -0.8957  GROUP=   2
 DUMP ORBITAL  5.1 AS ORBITAL    5  occ=    2.0000  eig=   -0.5690  GROUP=   2
 DUMP ORBITAL  6.1 AS ORBITAL    6  occ=    2.0000  eig=   -0.5690  GROUP=   2
 DUMP ORBITAL  7.1 AS ORBITAL    7  occ=    2.0000  eig=   -0.5677  GROUP=   2
 DUMP ORBITAL  8.1 AS ORBITAL    8  occ=    2.0000  eig=   -0.5676  GROUP=   2
 DUMP ORBITAL  9.1 AS ORBITAL    9  occ=    1.1356  eig=   -0.1243  GROUP=   3
 DUMP ORBITAL 10.1 AS ORBITAL   10  occ=    0.8644  eig=   -0.0781  GROUP=   3

 Total charge:      18.000000

 **********************************************************************************************************************************

 RS2/cc-pVDZ energy=    -79.388490486327

             RS2           MULTI
    -79.38849049    -79.11999026
 **********************************************************************************************************************************
 Molpro calculation terminated
