[Molden Format]
[Molpro variables]
_NUMVAR=  1056.000000000000    
_AVOGAD= 0.6022140760000000E+24
_BOLTZ= 0.1380649000000000E-22
_CLIGHTSI=  299792458.0000000    
_JOULE= 0.4359744722207100E-17
_JPCAL=  4.184000000000000    
_PLANCK= 0.6626070150000000E-33
_BOHR= 0.5291772109030000E-10
_ECHARG= 0.1602176634000000E-18
_ENULL= 0.8854187812800001E-11
_MU= 0.1660539066600000E-26
_EMASS= 0.9109383701500001E-30
_AMU2AU=  1822.888486217313    
_CLIGHT=  29979245800.00000    
_EV= 0.3674932217565494E-01
_KJOULE= 0.3808798847133432E-03
_KJOULE/MOL= 0.3808798847133432E-03
_CM= 0.4556335252912009E-05
_CM-1= 0.4556335252912009E-05
_DEB2SI= 0.3335640951981520E-29
_KCAL= 0.1593601437640628E-02
_KCAL/MOL= 0.1593601437640628E-02
_KELVIN= 0.3166811563455608E-05
_HERTZ= 0.1519829846057038E-15
_HZ= 0.1519829846057038E-15
_TOA= 0.5291772109030000    
_TOANG= 0.5291772109030000    
_TORAD= 0.1745329251994330E-01
_TOCM=  219474.6313631965    
_TODEBYE=  2.541746473194078    
_TOE= 0.4803204712570263E-09
_TOEV=  27.21138624598803    
_TOHERTZ=  6579683920501656.    
_TOHZ=  6579683920501656.    
_TOK=  315775.0248040668    
_TOKCAL=  627.5094740630558    
_TOKELVIN=  315775.0248040668    
_TOKJ=  2625.499639479825    
_TOKJOULE=  2625.499639479825    
_TOKG= 0.1660539066600000E-26
_ANG=  1.889726124625770    
_ANGSTROM=  1.889726124625770    
_RPAREF=  0.000000000000000    
_RPADISS=  0.000000000000000    
_IGNORE_UNDEF=  2.000000000000000    
_STRICTCHECK=  0.000000000000000    
!SEWARD=  0.000000000000000    
!MULTI=  0.000000000000000    
!DFMULTI=  0.000000000000000    
_SEW_ONEEL=  0.000000000000000    
_CPPDONE=FALSE
_DKROLL_DONE=  0.000000000000000    
_FNUC_DONE=  0.000000000000000    
_FOCKDONE=  0.000000000000000    
_GRADONE=FALSE
_HESSDONE=FALSE
_INTDONE=TRUE
_SCFDONE=FALSE
_MODUL_BLOCK=FALSE
_MODUL_CUDA=FALSE
_MODUL_SLATER=FALSE
_MODUL_MRCC=TRUE
_MODUL_NBO6=FALSE
_MODUL_NECI=FALSE
_MODUL_AIMS=TRUE
_MODUL_GECCO=FALSE
_ISWINDOWS=FALSE
_MRCC_EXEC=/software/cinetica/mrcc/bin/dmrcc
_FITC_AO_SAVED=FALSE
_FITC_MO_SAVED=FALSE
_SHARED_FS=TRUE
_LSTYP=SEWARD
_INTYP=INTS
_GEOMTYP=ZMAT
_GRADTYP=ALASKA
_DIRECT=FALSE
_DKHO= -1.000000000000000    
_FNUC=  0.000000000000000    
_SYNCM=  0.000000000000000    
_BASIS=CC-PVDZ
_ZORIENT=  1.000000000000000    
!ZORIENT=  0.000000000000000    
_NELEC=  18.00000000000000    
!SPIN=  0.000000000000000    
_QSDSTEP=  0.000000000000000    
_QSDIRC=  0.000000000000000    
_PROGRAM=RS2
_CPUSTEP= 0.1499999999999999    
_SYSSTEP= 0.6999999999999995E-01
_WALLSTEP= 0.4800000000000000    
!DFMP2=  0.000000000000000    
!DFHFENERG=  0.000000000000000    
!SCSGRD=  0.000000000000000    
_CPUTOT=  1.040000000000000    
_DMX=-0.1568342654376250E-04
_DMY=-0.7380282772972979E-05
_DMZ=-0.1442642751386045E-03
_EMP2= -79.38849048632719    
_ENERGR= -79.11999026291230    
_ENERGU= -79.37191398966382    
_ENERGY= -79.38849048632719    
_ENERGY_METHOD=RS2
_ENERGY_BASIS=cc-pVDZ
_GEOMETRY_METHOD=
_GEOMETRY_BASIS=
_ENERGY_AVRG= -79.11999026291231    
_ENUC=  29.84831123375817    
_GRADMETHOD=  9.000000000000000    
_NMRMETHOD=  0.000000000000000    
_NMRMAGNET=  0.000000000000000    
!GRID_FREEZE= -1.000000000000000    
!NEESE_INDEX=  0.000000000000000    
_ITERATIONS=  4.000000000000000    
_LASTNELEC=  2.000000000000000    
_LASTSPIN=  0.000000000000000    
_LASTSYM=  1.000000000000000    
_MPP_PROG=  1.000000000000000    
_MSNSTATES=  0.000000000000000    
_RS2PHASE=  0.000000000000000    
_IPROC_MPP=  0.000000000000000    
_IPROC_MPPX=  0.000000000000000    
_NPROC_MPP=  4.000000000000000    
_NPROC_MPPX=  4.000000000000000    
_NPROC_SMP=  1.000000000000000    
_NUMSTEP=  0.000000000000000    
_ORBITAL=  2140.200000000000    
_PI=  3.141592653589793    
!MCACT=  2.000000000000000    
!MCCLOSED=  8.000000000000000    
!MCFREEZE=  0.000000000000000    
!MCMS2=  0.000000000000000    
!MCNEL=  2.000000000000000    
!MCNSTSYM=  1.000000000000000    
!MCSTATE=  1.000000000000000    
!MCSYM=  1.000000000000000    
!MCWEIGHT=  1.000000000000000    
_SEIG_MIN= 0.1482450738199738E-01
_SEWPROP=TRUE
_STATUS=  1.000000000000000    
_SYSTOT= 0.4500000000000000    
_VERSION=  2022002.000000000    
_WALLTOT=  2.510000000000000    
_DATE=27-May-23
_LASTORB=MCSCF
_OUTPUT=/home/chimica2/cavallotti/qm/barrierless/vrc_autom/folders/ch3+ch3/dist_4.0/molpro.out
_PGROUP=C1
_TIME=09:32:06
_LIBMOL=/software/cinetica/molpro_2022.2/lib/
_VIGRDC=  0.000000000000000    
!VIBCNT=  0.000000000000000    
!RGHFCNT=  0.000000000000000    
!SURFREC=  0.000000000000000    
!XSURFREC=  0.000000000000000    
!XPOLYREC=  0.000000000000000    
!ROTREC=  0.000000000000000    
!POLYREC=  0.000000000000000    
!DIPREC=  0.000000000000000    
!DIP4DREC=  0.000000000000000    
!DIPROT=  0.000000000000000    
!DIP4DROT=  0.000000000000000    
!PTREC=  0.000000000000000    
!PT4DREC=  0.000000000000000    
!VSCFREC=  0.000000000000000    
!VCIREC=  0.000000000000000    
!PVCIREC=  0.000000000000000    
!VMP2REC=  0.000000000000000    
!VMCSCFREC=  0.000000000000000    
!VMRCIREC=  0.000000000000000    
!VIBSTATEREC=  0.000000000000000    
!VIBSTATECNT=  0.000000000000000    
!VIBINFO=  0.000000000000000    
!GAREC=  0.000000000000000    
!MCORB=  21402.00000000000    
!DEFCORE=  2.000000000000000    
!SCORE=  0.000000000000000    
!NEWMOL= -1.000000000000000    
!NEWSYM= -1.000000000000000    
_SLFILES=slscratch
_NGSSTO=  9.000000000000000    
_SIN=SIN
_COS=COS
_TAN=TAN
_ACOS=ACOS
_ASIN=ASIN
_ATAN=ATAN
_COSH=COSH
_SINH=SINH
_TANH=TANH
_ABS=ABS
_MOD=MOD
_ERF=ERF
_REFC=REFC
_ERFC=ERFC
_HYPOT=HYPOT
_J0=J0
_J1=J1
_JN=JN
_GAMMA=GAMMA
_LGAMMA=LGAMMA
_Y0=Y0
_Y1=Y1
_YN=YN
_EXP=EXP
_LOG=LOG
_LOG10=LOG10
_SQRT=SQRT
_INT=INT
_NINT=NINT
_MAX=MAX
_MIN=MIN
_COSMO=  0.000000000000000    
_COSMOIT=  0.000000000000000    
_COSMOES=  0.000000000000000    
_COSMOEDS=  0.000000000000000    
_COSMOEC=  0.000000000000000    
_COSMOEDCORR=  0.000000000000000    
_FEPSI=  1.000000000000000    
_SL_IsMM=  0.000000000000000    
_SL_NSYM=  1.000000000000000    
_SL_System_BitSw=  0.000000000000000    
_SL_Unique_atoms=  0.000000000000000    
_SL_GRAD=  0.000000000000000    
_SL_MAXUPD_Hess=  5.000000000000000    
_SL_N_PRINT_COD=  5.000000000000000    
_SL_PRINT_CODES=  0.000000000000000    
_SL_BasType=  0.000000000000000    
_SL_Energy_Pred=  0.000000000000000    
_SL_New_Coords=  0.000000000000000    
_SL_Total_Nuclea=  0.000000000000000    
_SL_Highest_Mltp=  0.000000000000000    
_SL_Ref_Geom=  0.000000000000000    
_SL_Symmetry_ope=  1.000000000000000    
_SL_agrad=  0.000000000000000    
_SL_GrdMax=  0.000000000000000    
_SL_GrdNorm=  0.000000000000000    
_SL_GrdRMS=  0.000000000000000    
_SL_Hss_Q=  0.000000000000000    
_SL_Hss_X=  0.000000000000000    
_SL_BMxOld=  0.000000000000000    
_SL_KtB=  0.000000000000000    
_SL_TROld=  0.000000000000000    
_SL_No_of_Intern=  0.000000000000000    
_SL_Hess=  0.000000000000000    
_SL_K=  0.000000000000000    
!LATTICE= -1.000000000000000    
!NEWLATTICE=  0.000000000000000    
!LATGRAD_VAR=FALSE
!SEW_LATTICE=  1.000000000000000    
!AIC_ONEEL=  0.000000000000000    
!LOCAL=  0.000000000000000    
!SAVEDOM= -1.000000000000000    
!RESTDOM= -1.000000000000000    
!SAVEDOM_HF= -1.000000000000000    
!RESTDOM_HF= -1.000000000000000    
!HESSREC=  0.000000000000000    
!FREQREC=  0.000000000000000    
!NMODREC=  0.000000000000000    
!GTASKS=  0.000000000000000    
!HTASKS=  0.000000000000000    
!SAVEDOM_EOM= -1.000000000000000    
!RESTDOM_EOM= -1.000000000000000    
!GRADSTATE= -1.000000000000000    
!DEBUG=  0.000000000000000    
!CFIT_CPHF=  0.000000000000000    
!RDOMAUX_CPHF=  0.000000000000000    
!THRAO_CPHF= 0.1000000000000000E-11
!THRMO_CPHF= 0.1000000000000000E-11
!THROV_CPHF= 0.1000000000000000E-11
!THRSW_CPHF= 0.1000000000000000E-11
!THRPROD_CPHF= 0.1000000000000000E-11
!THRAOPR_CPHF= 0.1000000000000000E-11
!CFIT_SCFGRD=  0.000000000000000    
!RDOMAUX_SCFGRD=  0.000000000000000    
!THRAO_SCFGRD= 0.1000000000000000E-11
!THRMO_SCFGRD= 0.1000000000000000E-11
!THROV_SCFGRD= 0.1000000000000000E-11
!THRSW_SCFGRD= 0.1000000000000000E-11
!THRPROD_SCFGRD= 0.1000000000000000E-11
!THRAOPR_SCFGRD= 0.1000000000000000E-11
!LOCFIT_SCF=  0.000000000000000    
!LOCFIT_MP2=  0.000000000000000    
_RIDOM=  0.000000000000000    
!CC2_METHOD=  0.000000000000000    
_BASIS2006=FALSE
_SVDDEL= -1.000000000000000    
_SVDDELA= -1.000000000000000    
_SVDDELP= -1.000000000000000    
_SVDDELF= -1.000000000000000    
_SVDDELS= -1.000000000000000    
_SVDDEL_ABS= -1.000000000000000    
_SVDDELA_ABS= -1.000000000000000    
_SVDDELP_ABS= -1.000000000000000    
_SVDDELF_ABS= -1.000000000000000    
_SVDDELS_ABS= -1.000000000000000    
_MAXBASIS=  0.000000000000000    
!OPT_CONICAL=  0.000000000000000    
!CLEARSP_JGRID=  0.000000000000000    
_GRDHYBR=  0.000000000000000    
_STATEGRAD=  1.000000000000000    
_4EXT_NDISKS=  1.000000000000000    
!EMBEDFLAG=  1.000000000000000    
!EMBED=FALSE
!EMBED_F12=FALSE
!EMBEDNUC=  0.000000000000000    
_EMBEDENERGY=  0.000000000000000    
!EMBED_DFC=FALSE
!NUM_VOIDS=  0.000000000000000    
_IBODY=  0.000000000000000    
_EMBE_CORR=  0.000000000000000    
!EMBED_PROJ=FALSE
!EMB_PROJ_ZMU=  1000000.000000000    
!CORRECTION_HF=  0.000000000000000    
!EMBED_AORB=  0.000000000000000    
!EMBED_NACORR=  0.000000000000000    
!EMBED_MP2=FALSE
!EMBED_TRUNC_PERTURBATION=FALSE
!EMBED_FROZEN=  0.000000000000000    
!EMBED_ACTIVE=  0.000000000000000    
_CHANGE_BASIS=FALSE
_RESTORE_BASIS=FALSE
_FIX_EMBED_GUESS=FALSE
_EMBED_SCF=FALSE
_HUZINAGA_T=FALSE
_HUZINAGA_F=FALSE
_HUZINAGA=FALSE
_HUZINAGA_CORRECT=FALSE
!FASTLATGRAD=  1.000000000000000    
!FASTVLAMBDA= -1.000000000000000    
!IFORCE= -1.000000000000000    
!USESYM= -1.000000000000000    
_SINDEX=  0.000000000000000    
_AVDOM_OSV=  0.000000000000000    
_AVDOM_PNO=  0.000000000000000    
_AVDOM_PAO=  0.000000000000000    
_AVDOM_LMO=  0.000000000000000    
_CC2OSV_FLAG=  0.000000000000000    
_EOMCCSD_CONV=FALSE
_TMADC2_FLAG=FALSE
_PROPADC2_FLAG=FALSE
_LEN_VirQ=  0.000000000000000    
_GRDCC2LR_FLAG=FALSE
_GRDADC2_FLAG=FALSE
_DMX_CC=-0.3891593408282823E-03
_DMY_CC=-0.5948329790657070E-03
_DMZ_CC= 0.6313437088678597E-03
_DMX_NUC= 0.3398014580002773E-03
_DMY_NUC= 0.5342956329998927E-03
_DMZ_NUC=-0.3847100169962481E-03
_RO_VGLOBAL=  0.000000000000000    
_OPT=FALSE
_FREQ=FALSE
_HESS=FALSE
_CMRCC_callName=EMPTY
_CMRCC_callCount=  0.000000000000000    
_GECCO_CIROOT=  1.000000000000000    
_SYM_CATION=  0.000000000000000    
_MON_A=FALSE
_MON_B=FALSE
R1=  1.078200000000000    
R2=  1.078200000000000    
R3=  1.078200000000000    
A2=  119.9764000000000    
A3=  120.0259000000000    
D3=  179.6749000000000    
R21=  1.078200000000000    
R22=  1.078300000000000    
R23=  1.078200000000000    
A22=  119.9607000000000    
A23=  120.0262000000000    
D23=  180.3563000000000    
ANG2=  89.84350000000001    
DH3=  89.19480000000000    
DH2=  59.54740000000000    
DH1=  89.34420000000000    
ANG1=  89.87970000000000    
BB=  4.000000000000000    
GX1= 0.2935511242716680E-03
GY1=-0.4721441941748063E-03
GZ1= -3.779419699132638    
GX2=-0.5074208626660159    
GY2=  1.972755481553009    
GZ2= -3.775407919112148    
GX3=  1.963141359445072    
GY3=-0.5466508234801867    
GZ3= -3.761127213658165    
GX4= -1.454048954543355    
GY4= -1.427410906777837    
GZ4= -3.791704950690168    
GX5=-0.3509851012665774E-03
GY5= 0.3818363916263624E-03
GZ5=  3.779484723651151    
GX6= -1.958687875925638    
GY6= 0.5627876629208992    
GZ6=  3.773688890365537    
GX7=  1.465061845660644    
GY7=  1.416102779822116    
GZ7=  3.757420515947008    
GX8= 0.4926388933487426    
GY8= -1.976508051592607    
GZ8=  3.796355820021651    
CBSEN= -79.38849048632719    
[Atoms] Angs
C     1    6         0.0001553406       -0.0002498479       -1.9999827752
H     2    1        -0.2685155569        1.0439372435       -1.9978598327
H     3    1         1.0388496692       -0.2892751581       -1.9903028088
H     4    1        -0.7694495703       -0.7553533225       -2.0064838504
C     5    6        -0.0001857333        0.0002020591        2.0000171847
H     6    1        -1.0364929872        0.2978144058        1.9969501618
H     7    1         0.7752773413        0.7493693194        1.9883413088
H     8    1         0.2606932756       -1.0459230181        2.0089449844
[GTO]
   1 0
 s    9  1.00
  0.6665000000D+04  0.6920001793D-03
  0.1000000000D+04  0.5329001381D-02
  0.2280000000D+03  0.2707700701D-01
  0.6471000000D+02  0.1017180264D+00
  0.2106000000D+02  0.2747400712D+00
  0.7495000000D+01  0.4485641162D+00
  0.2797000000D+01  0.2850740738D+00
  0.5215000000D+00  0.1520400394D-01
  0.1596000000D+00 -0.3191000827D-02
 s    9  1.00
  0.6665000000D+04 -0.1460000642D-03
  0.1000000000D+04 -0.1154000508D-02
  0.2280000000D+03 -0.5725002519D-02
  0.6471000000D+02 -0.2331201026D-01
  0.2106000000D+02 -0.6395502813D-01
  0.7495000000D+01 -0.1499810660D+00
  0.2797000000D+01 -0.1272620560D+00
  0.5215000000D+00  0.5445292395D+00
  0.1596000000D+00  0.5804962554D+00
 s    9  1.00
  0.6665000000D+04  0.0000000000D+00
  0.1000000000D+04  0.0000000000D+00
  0.2280000000D+03  0.0000000000D+00
  0.6471000000D+02  0.0000000000D+00
  0.2106000000D+02  0.0000000000D+00
  0.7495000000D+01  0.0000000000D+00
  0.2797000000D+01  0.0000000000D+00
  0.5215000000D+00  0.0000000000D+00
  0.1596000000D+00  0.1000000000D+01
 p    4  1.00
  0.9439000000D+01  0.3810902127D-01
  0.2002000000D+01  0.2094801169D+00
  0.5456000000D+00  0.5085572839D+00
  0.1517000000D+00  0.4688422617D+00
 p    4  1.00
  0.9439000000D+01  0.0000000000D+00
  0.2002000000D+01  0.0000000000D+00
  0.5456000000D+00  0.0000000000D+00
  0.1517000000D+00  0.1000000000D+01
 d    1  1.00
  0.5500000000D+00  0.1000000000D+01
  
   2 0
 s    4  1.00
  0.1301000000D+02  0.1968498999D-01
  0.1962000000D+01  0.1379769298D+00
  0.4446000000D+00  0.4781477569D+00
  0.1220000000D+00  0.5012397451D+00
 s    4  1.00
  0.1301000000D+02  0.0000000000D+00
  0.1962000000D+01  0.0000000000D+00
  0.4446000000D+00  0.0000000000D+00
  0.1220000000D+00  0.1000000000D+01
 p    1  1.00
  0.7270000000D+00  0.1000000000D+01
  
   3 0
 s    4  1.00
  0.1301000000D+02  0.1968498999D-01
  0.1962000000D+01  0.1379769298D+00
  0.4446000000D+00  0.4781477569D+00
  0.1220000000D+00  0.5012397451D+00
 s    4  1.00
  0.1301000000D+02  0.0000000000D+00
  0.1962000000D+01  0.0000000000D+00
  0.4446000000D+00  0.0000000000D+00
  0.1220000000D+00  0.1000000000D+01
 p    1  1.00
  0.7270000000D+00  0.1000000000D+01
  
   4 0
 s    4  1.00
  0.1301000000D+02  0.1968498999D-01
  0.1962000000D+01  0.1379769298D+00
  0.4446000000D+00  0.4781477569D+00
  0.1220000000D+00  0.5012397451D+00
 s    4  1.00
  0.1301000000D+02  0.0000000000D+00
  0.1962000000D+01  0.0000000000D+00
  0.4446000000D+00  0.0000000000D+00
  0.1220000000D+00  0.1000000000D+01
 p    1  1.00
  0.7270000000D+00  0.1000000000D+01
  
   5 0
 s    9  1.00
  0.6665000000D+04  0.6920001793D-03
  0.1000000000D+04  0.5329001381D-02
  0.2280000000D+03  0.2707700701D-01
  0.6471000000D+02  0.1017180264D+00
  0.2106000000D+02  0.2747400712D+00
  0.7495000000D+01  0.4485641162D+00
  0.2797000000D+01  0.2850740738D+00
  0.5215000000D+00  0.1520400394D-01
  0.1596000000D+00 -0.3191000827D-02
 s    9  1.00
  0.6665000000D+04 -0.1460000642D-03
  0.1000000000D+04 -0.1154000508D-02
  0.2280000000D+03 -0.5725002519D-02
  0.6471000000D+02 -0.2331201026D-01
  0.2106000000D+02 -0.6395502813D-01
  0.7495000000D+01 -0.1499810660D+00
  0.2797000000D+01 -0.1272620560D+00
  0.5215000000D+00  0.5445292395D+00
  0.1596000000D+00  0.5804962554D+00
 s    9  1.00
  0.6665000000D+04  0.0000000000D+00
  0.1000000000D+04  0.0000000000D+00
  0.2280000000D+03  0.0000000000D+00
  0.6471000000D+02  0.0000000000D+00
  0.2106000000D+02  0.0000000000D+00
  0.7495000000D+01  0.0000000000D+00
  0.2797000000D+01  0.0000000000D+00
  0.5215000000D+00  0.0000000000D+00
  0.1596000000D+00  0.1000000000D+01
 p    4  1.00
  0.9439000000D+01  0.3810902127D-01
  0.2002000000D+01  0.2094801169D+00
  0.5456000000D+00  0.5085572839D+00
  0.1517000000D+00  0.4688422617D+00
 p    4  1.00
  0.9439000000D+01  0.0000000000D+00
  0.2002000000D+01  0.0000000000D+00
  0.5456000000D+00  0.0000000000D+00
  0.1517000000D+00  0.1000000000D+01
 d    1  1.00
  0.5500000000D+00  0.1000000000D+01
  
   6 0
 s    4  1.00
  0.1301000000D+02  0.1968498999D-01
  0.1962000000D+01  0.1379769298D+00
  0.4446000000D+00  0.4781477569D+00
  0.1220000000D+00  0.5012397451D+00
 s    4  1.00
  0.1301000000D+02  0.0000000000D+00
  0.1962000000D+01  0.0000000000D+00
  0.4446000000D+00  0.0000000000D+00
  0.1220000000D+00  0.1000000000D+01
 p    1  1.00
  0.7270000000D+00  0.1000000000D+01
  
   7 0
 s    4  1.00
  0.1301000000D+02  0.1968498999D-01
  0.1962000000D+01  0.1379769298D+00
  0.4446000000D+00  0.4781477569D+00
  0.1220000000D+00  0.5012397451D+00
 s    4  1.00
  0.1301000000D+02  0.0000000000D+00
  0.1962000000D+01  0.0000000000D+00
  0.4446000000D+00  0.0000000000D+00
  0.1220000000D+00  0.1000000000D+01
 p    1  1.00
  0.7270000000D+00  0.1000000000D+01
  
   8 0
 s    4  1.00
  0.1301000000D+02  0.1968498999D-01
  0.1962000000D+01  0.1379769298D+00
  0.4446000000D+00  0.4781477569D+00
  0.1220000000D+00  0.5012397451D+00
 s    4  1.00
  0.1301000000D+02  0.0000000000D+00
  0.1962000000D+01  0.0000000000D+00
  0.4446000000D+00  0.0000000000D+00
  0.1220000000D+00  0.1000000000D+01
 p    1  1.00
  0.7270000000D+00  0.1000000000D+01


[MO]
 Sym=      1.1
 Ene=     -11.2275
 Spin= Alpha
 Occup=    2.000000
1 0.050103130110619
2 0.000339217032906
3 -0.000271966945383
4 0.000000303888205
5 0.000000231642361
6 -0.000049798551114
7 0.000000212832575
8 -0.000000372766049
9 0.000106659466347
10 0.000024995989787
11 0.000024668164952
12 -0.000049664154739
13 -0.000000121756330
14 0.000000780867048
15 0.000000159343415
16 -0.000078397988824
17 0.000094658220882
18 -0.000007979527994
19 0.000031058436318
20 -0.000017171579027
21 -0.000080418505779
22 0.000096486272220
23 0.000030966817027
24 -0.000008566681369
25 -0.000016970934338
26 -0.000078771920866
27 0.000096067282507
28 -0.000022713207262
29 -0.000022223153889
30 -0.000017356382512
31 1.00012107684804
32 0.007975439977060
33 -0.007976007660137
34 -0.000000062401457
35 -0.000000575109686
36 -0.000018730750180
37 0.000000190394454
38 -0.000000172554747
39 0.000022996496534
40 0.000362393843992
41 0.000364084026355
42 -0.000726477870347
43 -0.000000985247249
44 -0.000002543742889
45 -0.000013666376459
46 -0.000692397651130
47 0.001595436354536
48 -0.000500163640614
49 0.000143089261232
50 -0.000003226999520
51 -0.000691519213557
52 0.001594486498554
53 0.000374388576297
54 0.000361145795370
55 -0.000007377124681
56 -0.000694509174987
57 0.001596378551546
58 0.000125884972062
59 -0.000505358544565
60 0.000002551453828
 Sym=      2.1
 Ene=     -11.2275
 Spin= Alpha
 Occup=    2.000000
1 1.00012283552061
2 0.007982397379743
3 -0.007989716638842
4 -0.000000366698212
5 0.000000109963917
6 0.000022900495910
7 -0.000000255194482
8 -0.000000097720619
9 -0.000033207071620
10 0.000362082457783
11 0.000363182270092
12 -0.000725264727875
13 0.000000779172936
14 0.000010390490900
15 0.000003121116170
16 -0.000688673625968
17 0.001594116242872
18 -0.000129922181231
19 0.000503414393182
20 0.000004437245441
21 -0.000687207963275
22 0.001593380158091
23 0.000500440446309
24 -0.000139415148351
25 0.000008077402248
26 -0.000689457359209
27 0.001594487827636
28 -0.000371377088018
29 -0.000364067903801
30 0.000000279311215
31 -0.050134900178092
32 -0.000460480040918
33 0.000528112699758
34 0.000000178772969
35 0.000000446589055
36 0.000051921089017
37 -0.000000292027594
38 0.000000371076560
39 -0.000109496979878
40 -0.000011250072132
41 -0.000011840260364
42 0.000023090332496
43 0.000000266301428
44 0.000000118331933
45 0.000000346458445
46 -0.000010824770347
47 -0.000063176862081
48 0.000019382097539
49 -0.000005515094507
50 0.000017535151302
51 -0.000010884923515
52 -0.000064081270757
53 -0.000014292844989
54 -0.000013808255077
55 0.000017757589911
56 -0.000008288414358
57 -0.000064941606992
58 -0.000004878621427
59 0.000019798081673
60 0.000017255329640
 Sym=      3.1
 Ene=      -0.8978
 Spin= Alpha
 Occup=    2.000000
1 -0.019999143638061
2 0.53489757454399
3 -0.10432294681266
4 0.000033673318293
5 0.000011734623446
6 0.001227734204314
7 -0.000034093403349
8 -0.000004138472475
9 0.000252835403092
10 0.001094816782060
11 0.001094815144365
12 -0.002189631926425
13 -0.000000680452169
14 0.000031884537295
15 0.000010094814435
16 0.24853333941508
17 -0.10241219352378
18 0.005048112368495
19 -0.019608483868949
20 -0.000038642909053
21 0.24854486143357
22 -0.10240176179114
23 -0.019505664223695
24 0.005429213650674
25 -0.000180588247833
26 0.24850410052705
27 -0.10241836862546
28 0.014452972589470
29 0.014178841342576
30 0.000121978799238
31 -0.019854805774668
32 0.53109920845384
33 -0.10357796885473
34 -0.000017670730383
35 0.000026865673314
36 -0.001287913137830
37 0.000010743206765
38 -0.000036878257923
39 -0.000249174455649
40 0.001086276659606
41 0.001085220276136
42 -0.002171496935742
43 -0.000001118534532
44 -0.000008181406630
45 -0.000041470895443
46 0.24677221151010
47 -0.10167720205617
48 0.019323788873653
49 -0.005546665123843
50 0.000055159207650
51 0.24673618523034
52 -0.10164505811351
53 -0.014458724527225
54 -0.013965089860344
55 0.000214474961630
56 0.24674367870303
57 -0.10169226166019
58 -0.004864071874057
59 0.019505913593150
60 -0.000168038066956
 Sym=      4.1
 Ene=      -0.8957
 Spin= Alpha
 Occup=    2.000000
1 0.019745657057187
2 -0.53320644129179
3 0.10324964472480
4 -0.000025001265837
5 -0.000006018718060
6 0.001224461538556
7 0.000008126292667
8 -0.000003288228333
9 0.001035812157830
10 -0.001324542913079
11 -0.001323890378693
12 0.002648433291772
13 0.000000516313906
14 -0.000034944465021
15 -0.000011461625565
16 -0.24780355720494
17 0.10298689656108
18 -0.004989809847760
19 0.019385543826816
20 0.000082286470458
21 -0.24779271499243
22 0.10298661696254
23 0.019281358687477
24 -0.005366249044396
25 0.000224792369310
26 -0.24780450627547
27 0.10297948110455
28 -0.014290431144308
29 -0.014019903319488
30 -0.000078863884342
31 -0.019884115754866
32 0.53700441760707
33 -0.10398059320671
34 -0.000022780204092
35 0.000015767034998
36 0.001160147564361
37 0.000017347064955
38 -0.000003011993932
39 0.001042918447407
40 0.001333116520863
41 0.001331443582735
42 -0.002664560103598
43 -0.000001224056235
44 -0.000009421523561
45 -0.000046080745367
46 0.24957241652959
47 -0.10371182519928
48 0.019377144607197
49 -0.005563168859949
50 0.000100005912841
51 0.24950561413394
52 -0.10369314017715
53 -0.014496175354346
54 -0.014002105643180
55 0.000262148449170
56 0.24958028943576
57 -0.10371027340669
58 -0.004879085713760
59 0.019563928068046
60 -0.000127245084067
 Sym=      5.1
 Ene=      -0.5690
 Spin= Alpha
 Occup=    2.000000
1 0.000002297283273
2 -0.000085106087517
3 -0.000019630051880
4 -0.024430182411982
5 0.44592547621007
6 0.000926346501118
7 0.004631056192150
8 -0.084581214829308
9 -0.000165151545569
10 -0.010997825139241
11 0.010992660127513
12 0.000005165011729
13 -0.010724539706639
14 -0.000139885153511
15 -0.000035365197211
16 0.43702577774377
17 -0.12264682740388
18 0.005536290429419
19 -0.014534437851839
20 -0.000054845650029
21 -0.14285136349686
22 0.040054432659235
23 0.007125667594960
24 0.006757131448924
25 0.000095723667534
26 -0.29427587109492
27 0.082688379421143
28 -0.012101938664136
29 -0.002521864706564
30 -0.000055319964204
31 0.000005704814044
32 -0.000054333902880
33 -0.000032681458759
34 -0.054411201681476
35 0.45282137010296
36 -0.004810203736596
37 0.010325527639854
38 -0.085887426897605
39 0.000925400352015
40 0.012017711074480
41 -0.012016158077177
42 -0.000001552997304
43 0.009768156890952
44 -0.000137862856627
45 0.000104313422267
46 0.17682186155375
47 -0.049719859260930
48 0.008315482905450
49 0.006313044886465
50 -0.000051859071884
51 0.27489380229211
52 -0.077136262442187
53 -0.012017757259503
54 -0.001553928923077
55 0.000083783569060
56 -0.45167094119530
57 0.12685968377528
58 0.004960881203422
59 -0.015223234102139
60 0.000077061341913
 Sym=      6.1
 Ene=      -0.5690
 Spin= Alpha
 Occup=    2.000000
1 0.000004201648504
2 -0.000059364254695
3 -0.000033952023245
4 0.45689834372017
5 0.055966726433409
6 0.003928816986968
7 -0.086627974022552
8 -0.010609960298645
9 -0.000753371985978
10 0.008797826476798
11 -0.008798307052614
12 0.000000480575817
13 -0.013798501463226
14 0.000067998043641
15 -0.000144585508738
16 -0.059637025877493
17 0.016669144860853
18 0.008271108419696
19 0.004308212472124
20 0.000084852627109
21 0.42431887434798
22 -0.11911906363867
23 -0.013511652216961
24 0.007403873685487
25 -0.000161287865420
26 -0.36467416740652
27 0.10246389377193
28 -0.005297928959334
29 -0.013007215632759
30 -0.000011856772372
31 0.000002917139314
32 -0.000045747319420
33 -0.000009299415721
34 0.44166477998388
35 0.022571631092826
36 -0.001162885823287
37 -0.083732786063327
38 -0.004278090845903
39 0.000214032223872
40 -0.008987303966672
41 0.008981082856791
42 0.000006221109881
43 0.012783584125267
44 -0.000149366019107
45 -0.000147741721758
46 -0.41750253960268
47 0.11720880359516
48 -0.013400060695092
49 0.006822907618145
50 -0.000117963361215
51 0.33270584289705
52 -0.093283144882270
53 -0.004443674944096
54 -0.012335778963090
55 0.000191343739015
56 0.084737647531724
57 -0.023843934674802
58 0.007656889697789
59 0.004993762243452
60 -0.000052802820659
 Sym=      7.1
 Ene=      -0.5677
 Spin= Alpha
 Occup=    2.000000
1 -0.000002483896135
2 0.000053673220754
3 0.000013346547086
4 -0.059630556419619
5 0.45387748204344
6 0.000609856875821
7 0.011255697699975
8 -0.085820759973467
9 -0.000120896777517
10 -0.011987754922759
11 0.011996212609700
12 -0.000008457686941
13 -0.009998765994433
14 -0.000121929726938
15 -0.000246183875760
16 0.45380202553831
17 -0.12906249410370
18 0.005031525099149
19 -0.015148340769261
20 -0.000207673463035
21 -0.17885634541553
22 0.050788891848262
23 0.008289915271125
24 0.006370064617967
25 0.000162772863731
26 -0.27485600133533
27 0.078205001112233
28 -0.011967842084933
29 -0.001573280256417
30 0.000025808565768
31 0.000000595809541
32 0.000029922376834
33 -0.000028460424216
34 0.027228274382421
35 -0.44690742490125
36 0.004795348099034
37 -0.005169372159252
38 0.084511789729111
39 -0.000912787640640
40 -0.011318907735851
41 0.011313470329317
42 0.000005437406534
43 -0.010399985225987
44 0.000159707694489
45 -0.000311858401046
46 -0.14922220200601
47 0.042533838636953
48 -0.007341528686556
49 -0.006604945845151
50 0.000009300333797
51 -0.29048364485031
52 0.082597215666835
53 0.012022991971597
54 0.002227771483256
55 -0.000186944385597
56 0.43964046320222
57 -0.12506625603749
58 -0.005306357835152
59 0.014576651372812
60 0.000060637029078
 Sym=      8.1
 Ene=      -0.5676
 Spin= Alpha
 Occup=    2.000000
1 0.000001430669931
2 0.000015602966269
3 -0.000018636008617
4 -0.44255017099787
5 -0.027959554867094
6 -0.003728380471231
7 0.083629263298284
8 0.005307055848981
9 0.000711105144593
10 -0.009165025821721
11 0.009160335262716
12 0.000004690559005
13 0.012726874592309
14 0.000141665587791
15 0.000152193078904
16 0.083155760444451
17 -0.023588098858390
18 -0.007642181499519
19 -0.004980759410977
20 -0.000110330706970
21 -0.41827466097577
22 0.11901382017238
23 0.013361004588164
24 -0.006716111233804
25 0.000296303765161
26 0.33506279166515
27 -0.095357109565995
28 0.004359235999409
29 0.012339622512275
30 -0.000093924619571
31 -0.000001484143065
32 0.000060121556038
33 0.000025362268834
34 0.45826646184021
35 0.058530905926784
36 -0.001551889829191
37 -0.086580809283998
38 -0.011034889016912
39 0.000298827290122
40 -0.008500050876375
41 0.008505236782613
42 -0.000005185906238
43 0.014177765468010
44 0.000055141442585
45 -0.000119075748173
46 -0.42372473350730
47 0.12050121365230
48 -0.013288862727150
49 0.007589474370197
50 -0.000257745240405
51 0.36981090421006
52 -0.10513420149995
53 -0.005522880107907
54 -0.012957894828773
55 0.000328521492068
56 0.054012245311496
57 -0.015426330531740
58 0.008376926942850
59 0.004038451885958
60 -0.000030380144627
 Sym=      9.1
 Ene=      -0.1243
 Spin= Alpha
 Occup=    1.135588
1 -0.000184389677880
2 -0.010803511088183
3 -0.006520631625773
4 -0.005221425133177
5 -0.001542363548768
6 0.61457429543454
7 -0.000679722592114
8 -0.000186179972523
9 0.081284551884346
10 -0.000666976395135
11 -0.000658789665885
12 0.001325766061020
13 0.000006443930719
14 -0.000006952373108
15 -0.000001377867410
16 -0.004597009154592
17 0.008212108859714
18 -0.000038331374561
19 -0.000323942096871
20 0.013544406153802
21 -0.004717481573938
22 0.008380665687568
23 -0.000404709797312
24 0.000047475218579
25 0.013550635374430
26 -0.004521396024863
27 0.008181578497183
28 0.000102918738960
29 0.000178105228731
30 0.013538089283355
31 -0.000184951785718
32 -0.010937403793109
33 -0.006579950954768
34 -0.001268709380729
35 -0.006844960643006
36 -0.61455949261552
37 -0.000153322105315
38 -0.000890184582920
39 -0.081282496096759
40 -0.000664748229805
41 -0.000652397055327
42 0.001317145285132
43 -0.000007557560372
44 0.000002856076322
45 0.000009477664598
46 -0.004591001435551
47 0.008310659805226
48 0.000265590172004
49 -0.000232348003203
50 -0.013544709954062
51 -0.004675540280714
52 0.008359967990885
53 -0.000245579991523
54 -0.000358584474254
55 -0.013550386594337
56 -0.004420561731532
57 0.008097938169314
58 -0.000100901054781
59 0.000145158707295
60 -0.013535953086728
 Sym=     10.1
 Ene=      -0.0781
 Spin= Alpha
 Occup=    0.864412
1 0.000463830679001
2 0.010244410968685
3 0.002746183551414
4 -0.005288499556701
5 -0.001608554377727
6 0.65260154163168
7 -0.000516220670073
8 -0.000152127389329
9 0.062480081664321
10 0.000944529999111
11 0.000935806252561
12 -0.001880336251672
13 -0.000006820373962
14 0.000019316458937
15 0.000009517777292
16 0.007252691014531
17 -0.009016186252062
18 -0.000187926537366