
 Working directory              : /scratch/cc/140715/molpro.PElh5TLuWl/
 Global scratch directory       : /scratch/cc/140715/molpro.PElh5TLuWl/
 Wavefunction directory         : /home/chimica2/cavallotti/wfu/
 Main file repository           : /scratch/cc/140715/molpro.PElh5TLuWl/

 id        : polimi

 Nodes     nprocs
 node-6-7     4
 GA implementation: MPI file
 GA implementation (serial work in mppx): MPI file

 Using customized tuning parameters: mindgm=1; mindgv=20; mindgc=4; mindgr=1; noblas=0; minvec=7
 default implementation of scratch files=sf  


 Variables initialized (1015), CPU time= 0.00 sec
  memory,         400 ,m
   nosym
  geometry={angstrom
    C1
    H2   C1   R1
    H3   C1   R2   H2   A2
    H4   C1   R3   H2   A3   H3   D3
    H21 C1 BB H2 ANG1 H3 DH1
  }
  R1                             =    1.0783000000000000
  R2                             =    1.0783000000000000
  R3                             =    1.0783000000000000
  A2                             =    119.99070000000000
  A3                             =    119.99530000000000
  D3                             =    179.87989999999999
  DH1                            =    89.699399999999997
  ANG1                           =    89.762500000000003
  BB                             =    3.7999999999999998
 
   basis=cc-pvdz
   {multi;closed, 4;occ, 6;wf, 10,1,0,;state,1;maxiter,40}
   {RS2,SHIFT=0.2;ORBITAL,IGNORE_ERROR;STATE,1}
   CBSen = energy
  put,molden,molpro.molden
 Commands initialized (834), CPU time= 0.01 sec, 672 directives.
 Default parameters read. Elapsed time= 0.12 sec

 Checking input...
 Passed
1


                                         ***  PROGRAM SYSTEM MOLPRO  ***
                                       Copyright, TTI GmbH Stuttgart, 2015
                                    Version 2022.2 linked Thu Sep 29 12:37:28 2022


 **********************************************************************************************************************************
 LABEL *                                                                                 
  64 bit mpp version                                                                     DATE: 03-Jun-23          TIME: 09:00:10  
 **********************************************************************************************************************************

 SHA1:             51306cdc306ce2a111a2867affebcb289530e0a7
 **********************************************************************************************************************************

 Memory per process:       400 MW
 Total memory per node:   1600 MW

 GA preallocation disabled
 GA check disabled

 Variable memory set to 400.0 MW

 ZSYMEL=NOSYM

 SETTING R1             =         1.07830000                                  
 SETTING R2             =         1.07830000                                  
 SETTING R3             =         1.07830000                                  
 SETTING A2             =       119.99070000                                  
 SETTING A3             =       119.99530000                                  
 SETTING D3             =       179.87990000                                  
 SETTING DH1            =        89.69940000                                  
 SETTING ANG1           =        89.76250000                                  
 SETTING BB             =         3.80000000                                  
 SETTING BASIS          =    CC-PVDZ


 Recomputing integrals since basis changed


 Using spherical harmonics

 Library entry C      S cc-pVDZ              selected for orbital group  1
 Library entry C      P cc-pVDZ              selected for orbital group  1
 Library entry C      D cc-pVDZ              selected for orbital group  1
 Library entry H      S cc-pVDZ              selected for orbital group  2
 Library entry H      P cc-pVDZ              selected for orbital group  2


 PROGRAM * SEWARD (Integral evaluation for generally contracted gaussian basis sets)     Author: Roland Lindh, 1990

 Geometry written to block  1 of record 700

 Orientation using atomic masses  
 Molecule type: Asymmetric top
 Rotational constants:      32.8232136     32.8221813    143.7439958 GHz  (calculated with average atomic masses)

 Point group  C1  



 ATOMIC COORDINATES

 NR  ATOM    CHARGE       X              Y              Z

   1  C1      6.00    0.000283157    0.000198372   -0.451400179
   2  H2      1.00    0.072289605    2.036595219   -0.441895619
   3  H3      1.00    1.728013828   -1.080126911   -0.445796781
   4  H4      1.00   -1.799375419   -0.955461759   -0.462806511
   5  H21     1.00   -0.004302226   -0.003370425    6.729556744

 Bond lengths in Bohr (Angstrom)

 1-2  2.037691680  1-3  2.037691680  1-4  2.037691680
     ( 1.078300000)     ( 1.078300000)     ( 1.078300000)

 Bond angles

  2-1-3  119.99070000   2-1-4  119.99530000   3-1-4  120.01389096

 NUCLEAR CHARGE:                   10
 NUMBER OF PRIMITIVE AOS:          55
 NUMBER OF SYMMETRY AOS:           54
 NUMBER OF CONTRACTIONS:           34   (   34A   )
 NUMBER OF INNER CORE ORBITALS:     0   (    0A   )
 NUMBER OF OUTER CORE ORBITALS:     1   (    1A   )
 NUMBER OF VALENCE ORBITALS:        8   (    8A   )


 NUCLEAR REPULSION ENERGY   10.92104257


 Eigenvalues of metric

         1 0.150E-01 0.352E-01 0.352E-01 0.421E-01 0.542E-01 0.542E-01 0.941E-01 0.122E+00


 Contracted 2-electron integrals neglected if value below      1.0D-11
 AO integral compression algorithm  1   Integral accuracy      1.0D-11

     1.049 MB (compressed) written to integral file (100.0%)

     Node minimum: 0.262 MB, node maximum: 0.262 MB


 NUMBER OF SORTED TWO-ELECTRON INTEGRALS:      44104.     BUFFER LENGTH:  32768
 NUMBER OF SEGMENTS:   1  SEGMENT LENGTH:      44104      RECORD LENGTH: 524288

 Memory used in sort:       0.60 MW

 SORT1 READ      217850. AND WROTE       40584. INTEGRALS IN      1 RECORDS. CPU TIME:     0.00 SEC, REAL TIME:     0.02 SEC
 SORT2 READ      162901. AND WROTE      177310. INTEGRALS IN      4 RECORDS. CPU TIME:     0.01 SEC, REAL TIME:     0.01 SEC

 Node minimum:       44104.  Node maximum:       44551. integrals

 OPERATOR DM      FOR CENTER  0  COORDINATES:    0.000000    0.000000    0.000000


 **********************************************************************************************************************************
 DATASETS  * FILE   NREC   LENGTH (MB)   RECORD NAMES
              1      18       28.65       500      610      700      900      950      970     1000      129      960     1100   
                                          VAR    BASINP    GEOM    SYMINP    ZMAT    AOBASIS   BASIS     P2S    ABASIS      S 
                                         1400     1410     1200     1210     1080     1600     1650     1700   
                                           T        V       H0       H01     AOSYM     SMH    MOLCAS    OPER   

 PROGRAMS   *        TOTAL       INT
 CPU TIMES  *         0.35      0.20
 REAL TIME  *         0.74 SEC
 DISK USED  *        28.95 MB (local),      132.54 MB (total)
 GA USED    *         0.00 MB       (max)       0.00 MB       (current)
 **********************************************************************************************************************************

 PROGRAM * MULTI (Direct Multiconfiguration SCF)       Authors: P.J. Knowles, H.-J. Werner (1984)
                                                                D.A. Kreplin, P.J. Knowles, H.-J. Werner (2019)

 Number of closed-shell orbitals:   4 (    4)
 Number of active  orbitals:        2 (    2)
 Number of external orbitals:      28 (   28)

 State symmetry 1

 Number of active electrons:   2    Spin symmetry=Singlet   Space symmetry=1
 Number of states:             1
 Number of CSFs:               3   (4 determinants, 4 intermediate states)

 Orbital guess generated from atomic densities. Full valence occupancy:    9

 Wavefunction dump at record             2140.2

 Convergence thresholds  0.10E-04 (gradient)  0.10E-05 (energy)
 
 Number of orbital rotations:  176  ( 8 closed/active, 112 closed/virtual, 0 active/active, 56 active/virtual )
 Total number of variables:    180
 
 Second-order MCSCF: L-BFGS accelerated
 
 ITER  MIC  NCI  NEG     ENERGY(VAR)    ENERGY(PROJ) ENERGY CHANGE       GRAD(0)  GRAD(ORB)   GRAD(CI)      STEP      TIME
   1    5    4    0    -40.04409684     -40.05942125   -0.01532440    0.14501917 0.00001130 0.00000000  0.13E+00      0.16
   2    7    6    0    -40.05939314     -40.05939472   -0.00000158    0.00182001 0.00000004 0.00000000  0.10E-02      0.38
   3    3    3    0    -40.05939472     -40.05939472   -0.00000000    0.00000053 0.00000000 0.00000000  0.27E-06      0.52

 CONVERGENCE REACHED!  Final gradient:    0.00000000 ( 0.70E-09)
                       Final energy:    -40.05939472
 
 First order charge density matrix for state 1.1 saved on record 2140.2 (density set 1)
 
 Results for state 1.1
 =====================
 !MCSCF STATE 1.1 Energy                       -40.059394720212
 Nuclear energy                                 10.92104257
 Kinetic energy                                 39.99096107
 One electron energy                           -74.55060472
 Two electron energy                            23.57016743
 Virial ratio                                    2.00171123
 
 !MCSCF STATE 1.1 Dipole moment                  0.00002059     0.00002951    -0.01524770
 Dipole moment /Debye                            0.00005233     0.00007500    -0.03875579
 
 No non-zero expectation values
 
 
 Natural orbital dump at molpro section 2140.2 (Orbital set 2)


 **********************************************************************************************************************************
 DATASETS  * FILE   NREC   LENGTH (MB)   RECORD NAMES
              1      19       28.95       500      610      700      900      950      970     1000      129      960     1100   
                                          VAR    BASINP    GEOM    SYMINP    ZMAT    AOBASIS   BASIS     P2S    ABASIS      S 
                                         1400     1410     1200     1210     1080     1600     1650     1700     1380   
                                           T        V       H0       H01     AOSYM     SMH    MOLCAS    OPER     JKOP   

              2       4        0.43       700     1000      520     2140   
                                         GEOM     BASIS   MCVARS    MCSCF   

 PROGRAMS   *        TOTAL     MULTI       INT
 CPU TIMES  *         0.61      0.26      0.20
 REAL TIME  *         1.33 SEC
 DISK USED  *        29.42 MB (local),      134.41 MB (total)
 SF USED    *         1.04 MB
 GA USED    *         0.00 MB       (max)       0.00 MB       (current)
 **********************************************************************************************************************************


 PROGRAM * RS2 (Multireference RS Perturbation Theory)     Authors: H.-J. Werner (1993), P. Celani (1998)


 Level shift= 0.20

 Convergence thresholds:  THRVAR = 1.00D-08  THRDEN = 1.00D-06

 Number of optimized states: 1  Roots:    1
 Number of reference states: 1  Roots:    1

 Reference symmetry:                   1   Singlet 
 Number of electrons:                 10
 Maximum number of shells:             4
 Maximum number of spin couplings:     5

 Reference space:        3 conf        3 CSFs
 N elec internal:       15 conf       15 CSFs
 N-1 el internal:       23 conf       32 CSFs
 N-2 el internal:       25 conf       52 CSFs

 Number of electrons in valence space:                      8
 Maximum number of open shell orbitals in reference space:  2
 Maximum number of open shell orbitals in internal spaces:  6


 Number of core orbitals:           1 (   1 )
 Number of closed-shell orbitals:   3 (   3 )
 Number of active  orbitals:        2 (   2 )
 Number of external orbitals:      28 (  28 )

 Molecular orbitals read from record     2140.2  Type=MCSCF/NATURAL (state 1.1)

 Integral transformation finished. Total CPU:   0.00 sec, npass=  1  Memory used:   0.11 MW


 Number of p-space configurations:   3

 Reference wavefunction optimized for reference space (refopt=1)

 State     Reference Energy 
     1       -40.05939472

 Number of blocks in overlap matrix:     2   Smallest eigenvalue:  0.10D+01
 Number of N-2 electron functions:      22
 Number of N-1 electron functions:      32

 Number of internal configurations:                   15
 Number of singly external configurations:           896
 Number of doubly external configurations:          8680
 Total number of contracted configurations:         9591
 Total number of uncontracted configurations:      21351

 Weight factors for SA-density in H0:    1.000000

 FIMAX=  0.39D-01  FXMAX=  0.68D-12  DIAG=  F  T  NOREF=1  NOINT=0  IHPPD=2

 Nuclear energy:                      10.92104257
 Core energy:                        -35.58158649
 Zeroth-order valence energy:         -4.37252876
 Zeroth-order total energy:          -29.03307268
 First-order energy:                 -11.02632204

 Using uncontracted singles

 Diagonal Coupling coefficients finished.               Storage:     883 words, CPU-Time:      0.00 seconds.
 Energy denominators for pairs finished in 0 passes.    Storage:    2295 words, CPU-time:      0.00 seconds.

 A level shift of 0.20 is applied.

  ITER. STATE  ROOT     SQ.NORM     CORR.ENERGY   TOTAL ENERGY   ENERGY CHANGE       DEN1      VAR(S)    VAR(P)      TIME
    1     1     1     1.00526629    -0.00105326   -40.06044798    -0.00105326    -0.12596922  0.53D-02  0.36D-01     0.02
    2     1     1     1.04136833    -0.13405877   -40.19345349    -0.13300551     0.00011025  0.18D-04  0.74D-05     0.02
    3     1     1     1.04135506    -0.13409868   -40.19349340    -0.00003991    -0.00002150  0.65D-07  0.55D-07     0.02
    4     1     1     1.04137476    -0.13410282   -40.19349754    -0.00000414    -0.00000000  0.10D-08  0.22D-09     0.03
    5     1     1     1.04137494    -0.13410286   -40.19349758    -0.00000004    -0.00000009  0.10D-10  0.45D-11     0.03

 Energies without level shift correction:

    5     1     1     1.04137494    -0.12582787   -40.18522259

 Energy contributions for state 1.1:
 ===================================

            Energy contr.      SQ.Norm of FOWF
 Space I     -0.00001433          0.00000979
 Space S     -0.01140543          0.00520525
 Space P     -0.11440811          0.03615990


 =====================================
 Analysis of CPU times by interactions
 =====================================

       I      S      P

 I   0.0%
 S   0.0%   0.0%
 P   0.0%   0.0%  33.3%

 Initialization:  66.7%
 Other:            0.0%

 Total CPU:        0.0 seconds
 =====================================



 Reference coefficients greater than 0.0500000
 =============================================
 22220           0.7407997
 22202          -0.6717260


 RESULTS FOR STATE 1.1
 =====================

 Coefficient of reference function:   C(0) = 1.00000000 (fixed)   1.00000000 (relaxed)

 Energy contributions of configuration classes

 CLASS          SQ.NORM        ECORR1        ECORR2
 +++++++++++++++++++++++++++++++++++++++++++++++++++
 Internals    0.00000979   -0.00001433    0.13407231
 Singles      0.00520525   -0.01140543   -0.02431100
 Pairs        0.03615990   -0.11440811   -0.24386418
 Total        1.04137494   -0.12582787   -0.13410286
 +++++++++++++++++++++++++++++++++++++++++++++++++++


 Reference energy                     -40.05939472
 Nuclear energy                        10.92104257
 Kinetic energy                        40.08220924
 One electron energy                  -74.48626373
 Two electron energy                   23.37172358
 Virial quotient                       -1.00277650
 Correlation energy                    -0.13410286
 !RSPT2 STATE 1.1 Energy              -40.193497581144

 Properties without orbital relaxation:

 !RSPT2 STATE 1.1 Dipole moment         0.00002201     0.00003155    -0.01588586
 Dipole moment /Debye                   0.00005595     0.00008020    -0.04037783


 **********************************************************************************************************************************
 DATASETS  * FILE   NREC   LENGTH (MB)   RECORD NAMES
              1      19       28.95       500      610      700      900      950      970     1000      129      960     1100   
                                          VAR    BASINP    GEOM    SYMINP    ZMAT    AOBASIS   BASIS     P2S    ABASIS      S 
                                         1400     1410     1200     1210     1080     1600     1650     1700     1380   
                                           T        V       H0       H01     AOSYM     SMH    MOLCAS    OPER     JKOP   

              2       4        0.43       700     1000      520     2140   
                                         GEOM     BASIS   MCVARS    MCSCF   

 PROGRAMS   *        TOTAL       RS2     MULTI       INT
 CPU TIMES  *         0.68      0.07      0.26      0.20
 REAL TIME  *         1.51 SEC
 DISK USED  *        29.42 MB (local),      134.41 MB (total)
 SF USED    *         1.23 MB
 GA USED    *         0.00 MB       (max)       0.00 MB       (current)
 **********************************************************************************************************************************
 SETTING CBSEN          =       -40.19349758  AU                              

 Dump information in style MOLDEN to molpro.molden                                                                   

 Molecular orbitals read from record     2140.2  Type=MCSCF/NATURAL (state 1.1)
 Occupation numbers read from record     2140.2  Type=MCSCF/NATURAL (state 1.1)
 Orbital energies read from record       2140.2  Type=MCSCF/NATURAL (state 1.1)
 Redundancy group numbers read from rec  2140.2  Type=MCSCF/NATURAL (state 1.1)

 DUMP ORBITAL  1.1 AS ORBITAL    1  occ=    2.0000  eig=  -11.2298  GROUP=   2
 DUMP ORBITAL  2.1 AS ORBITAL    2  occ=    2.0000  eig=   -0.8993  GROUP=   2
 DUMP ORBITAL  3.1 AS ORBITAL    3  occ=    2.0000  eig=   -0.5708  GROUP=   2
 DUMP ORBITAL  4.1 AS ORBITAL    4  occ=    2.0000  eig=   -0.5707  GROUP=   2
 DUMP ORBITAL  5.1 AS ORBITAL    5  occ=    1.0976  eig=   -0.1615  GROUP=   3
 DUMP ORBITAL  6.1 AS ORBITAL    6  occ=    0.9024  eig=   -0.1260  GROUP=   3

 Total charge:      10.000000

 **********************************************************************************************************************************

 RS2/cc-pVDZ energy=    -40.193497581144

             RS2           MULTI
    -40.19349758    -40.05939472
 **********************************************************************************************************************************
 Molpro calculation terminated
