[Molden Format]
[Molpro variables]
_NUMVAR=  1038.000000000000    
_AVOGAD= 0.6022140760000000E+24
_BOLTZ= 0.1380649000000000E-22
_CLIGHTSI=  299792458.0000000    
_JOULE= 0.4359744722207100E-17
_JPCAL=  4.184000000000000    
_PLANCK= 0.6626070150000000E-33
_BOHR= 0.5291772109030000E-10
_ECHARG= 0.1602176634000000E-18
_ENULL= 0.8854187812800001E-11
_MU= 0.1660539066600000E-26
_EMASS= 0.9109383701500001E-30
_AMU2AU=  1822.888486217313    
_CLIGHT=  29979245800.00000    
_EV= 0.3674932217565494E-01
_KJOULE= 0.3808798847133432E-03
_KJOULE/MOL= 0.3808798847133432E-03
_CM= 0.4556335252912009E-05
_CM-1= 0.4556335252912009E-05
_DEB2SI= 0.3335640951981520E-29
_KCAL= 0.1593601437640628E-02
_KCAL/MOL= 0.1593601437640628E-02
_KELVIN= 0.3166811563455608E-05
_HERTZ= 0.1519829846057038E-15
_HZ= 0.1519829846057038E-15
_TOA= 0.5291772109030000    
_TOANG= 0.5291772109030000    
_TORAD= 0.1745329251994330E-01
_TOCM=  219474.6313631965    
_TODEBYE=  2.541746473194078    
_TOE= 0.4803204712570263E-09
_TOEV=  27.21138624598803    
_TOHERTZ=  6579683920501656.    
_TOHZ=  6579683920501656.    
_TOK=  315775.0248040668    
_TOKCAL=  627.5094740630558    
_TOKELVIN=  315775.0248040668    
_TOKJ=  2625.499639479825    
_TOKJOULE=  2625.499639479825    
_TOKG= 0.1660539066600000E-26
_ANG=  1.889726124625770    
_ANGSTROM=  1.889726124625770    
_RPAREF=  0.000000000000000    
_RPADISS=  0.000000000000000    
_IGNORE_UNDEF=  2.000000000000000    
_STRICTCHECK=  0.000000000000000    
!SEWARD=  0.000000000000000    
!MULTI=  0.000000000000000    
!DFMULTI=  0.000000000000000    
_SEW_ONEEL=  0.000000000000000    
_CPPDONE=FALSE
_DKROLL_DONE=  0.000000000000000    
_FNUC_DONE=  0.000000000000000    
_FOCKDONE=  0.000000000000000    
_GRADONE=FALSE
_HESSDONE=FALSE
_INTDONE=TRUE
_SCFDONE=FALSE
_MODUL_BLOCK=FALSE
_MODUL_CUDA=FALSE
_MODUL_SLATER=FALSE
_MODUL_MRCC=TRUE
_MODUL_NBO6=FALSE
_MODUL_NECI=FALSE
_MODUL_AIMS=TRUE
_MODUL_GECCO=FALSE
_ISWINDOWS=FALSE
_MRCC_EXEC=/software/cinetica/mrcc/bin/dmrcc
_FITC_AO_SAVED=FALSE
_FITC_MO_SAVED=FALSE
_SHARED_FS=TRUE
_LSTYP=SEWARD
_INTYP=INTS
_GEOMTYP=ZMAT
_GRADTYP=ALASKA
_DIRECT=FALSE
_DKHO= -1.000000000000000    
_FNUC=  0.000000000000000    
_SYNCM=  0.000000000000000    
_BASIS=CC-PVDZ
_ZORIENT=  1.000000000000000    
!ZORIENT=  0.000000000000000    
_NELEC=  10.00000000000000    
!SPIN=  0.000000000000000    
_QSDSTEP=  0.000000000000000    
_QSDIRC=  0.000000000000000    
_PROGRAM=RS2
_CPUSTEP= 0.6999999999999995E-01
_SYSSTEP= 0.2000000000000002E-01
_WALLSTEP= 0.1800000000000000    
!DFMP2=  0.000000000000000    
!DFHFENERG=  0.000000000000000    
!SCSGRD=  0.000000000000000    
_CPUTOT= 0.6799999999999999    
_DMX= 0.2201367846224752E-04
_DMY= 0.3155471205141982E-04
_DMZ=-0.1588586151229165E-01
_EMP2= -40.19349758114369    
_ENERGR= -40.05939472021221    
_ENERGU= -40.18522259233922    
_ENERGY= -40.19349758114369    
_ENERGY_METHOD=RS2
_ENERGY_BASIS=cc-pVDZ
_GEOMETRY_METHOD=
_GEOMETRY_BASIS=
_ENERGY_AVRG= -40.05939472021219    
_ENUC=  10.92104256801029    
_GRADMETHOD=  9.000000000000000    
_NMRMETHOD=  0.000000000000000    
_NMRMAGNET=  0.000000000000000    
!GRID_FREEZE= -1.000000000000000    
!NEESE_INDEX=  0.000000000000000    
_ITERATIONS=  4.000000000000000    
_LASTNELEC=  2.000000000000000    
_LASTSPIN=  0.000000000000000    
_LASTSYM=  1.000000000000000    
_MPP_PROG=  1.000000000000000    
_MSNSTATES=  0.000000000000000    
_RS2PHASE=  0.000000000000000    
_IPROC_MPP=  0.000000000000000    
_IPROC_MPPX=  0.000000000000000    
_NPROC_MPP=  4.000000000000000    
_NPROC_MPPX=  4.000000000000000    
_NPROC_SMP=  1.000000000000000    
_NUMSTEP=  0.000000000000000    
_ORBITAL=  2140.200000000000    
_PI=  3.141592653589793    
!MCACT=  2.000000000000000    
!MCCLOSED=  4.000000000000000    
!MCFREEZE=  0.000000000000000    
!MCMS2=  0.000000000000000    
!MCNEL=  2.000000000000000    
!MCNSTSYM=  1.000000000000000    
!MCSTATE=  1.000000000000000    
!MCSYM=  1.000000000000000    
!MCWEIGHT=  1.000000000000000    
_SEIG_MIN= 0.1504022754646459E-01
_SEWPROP=TRUE
_STATUS=  1.000000000000000    
_SYSTOT= 0.3200000000000000    
_VERSION=  2022002.000000000    
_WALLTOT=  1.510000000000000    
_DATE=03-Jun-23
_LASTORB=MCSCF
_OUTPUT=/home/chimica2/cavallotti/qm/barrierless/vrc_autom/folders/ch3+h/dist_3.8/molpro.out
_PGROUP=C1
_TIME=09:00:10
_LIBMOL=/software/cinetica/molpro_2022.2/lib/
_VIGRDC=  0.000000000000000    
!VIBCNT=  0.000000000000000    
!RGHFCNT=  0.000000000000000    
!SURFREC=  0.000000000000000    
!XSURFREC=  0.000000000000000    
!XPOLYREC=  0.000000000000000    
!ROTREC=  0.000000000000000    
!POLYREC=  0.000000000000000    
!DIPREC=  0.000000000000000    
!DIP4DREC=  0.000000000000000    
!DIPROT=  0.000000000000000    
!DIP4DROT=  0.000000000000000    
!PTREC=  0.000000000000000    
!PT4DREC=  0.000000000000000    
!VSCFREC=  0.000000000000000    
!VCIREC=  0.000000000000000    
!PVCIREC=  0.000000000000000    
!VMP2REC=  0.000000000000000    
!VMCSCFREC=  0.000000000000000    
!VMRCIREC=  0.000000000000000    
!VIBSTATEREC=  0.000000000000000    
!VIBSTATECNT=  0.000000000000000    
!VIBINFO=  0.000000000000000    
!GAREC=  0.000000000000000    
!MCORB=  21402.00000000000    
!DEFCORE=  1.000000000000000    
!SCORE=  0.000000000000000    
!NEWMOL= -1.000000000000000    
!NEWSYM= -1.000000000000000    
_SLFILES=slscratch
_NGSSTO=  9.000000000000000    
_SIN=SIN
_COS=COS
_TAN=TAN
_ACOS=ACOS
_ASIN=ASIN
_ATAN=ATAN
_COSH=COSH
_SINH=SINH
_TANH=TANH
_ABS=ABS
_MOD=MOD
_ERF=ERF
_REFC=REFC
_ERFC=ERFC
_HYPOT=HYPOT
_J0=J0
_J1=J1
_JN=JN
_GAMMA=GAMMA
_LGAMMA=LGAMMA
_Y0=Y0
_Y1=Y1
_YN=YN
_EXP=EXP
_LOG=LOG
_LOG10=LOG10
_SQRT=SQRT
_INT=INT
_NINT=NINT
_MAX=MAX
_MIN=MIN
_COSMO=  0.000000000000000    
_COSMOIT=  0.000000000000000    
_COSMOES=  0.000000000000000    
_COSMOEDS=  0.000000000000000    
_COSMOEC=  0.000000000000000    
_COSMOEDCORR=  0.000000000000000    
_FEPSI=  1.000000000000000    
_SL_IsMM=  0.000000000000000    
_SL_NSYM=  1.000000000000000    
_SL_System_BitSw=  0.000000000000000    
_SL_Unique_atoms=  0.000000000000000    
_SL_GRAD=  0.000000000000000    
_SL_MAXUPD_Hess=  5.000000000000000    
_SL_N_PRINT_COD=  5.000000000000000    
_SL_PRINT_CODES=  0.000000000000000    
_SL_BasType=  0.000000000000000    
_SL_Energy_Pred=  0.000000000000000    
_SL_New_Coords=  0.000000000000000    
_SL_Total_Nuclea=  0.000000000000000    
_SL_Highest_Mltp=  0.000000000000000    
_SL_Ref_Geom=  0.000000000000000    
_SL_Symmetry_ope=  1.000000000000000    
_SL_agrad=  0.000000000000000    
_SL_GrdMax=  0.000000000000000    
_SL_GrdNorm=  0.000000000000000    
_SL_GrdRMS=  0.000000000000000    
_SL_Hss_Q=  0.000000000000000    
_SL_Hss_X=  0.000000000000000    
_SL_BMxOld=  0.000000000000000    
_SL_KtB=  0.000000000000000    
_SL_TROld=  0.000000000000000    
_SL_No_of_Intern=  0.000000000000000    
_SL_Hess=  0.000000000000000    
_SL_K=  0.000000000000000    
!LATTICE= -1.000000000000000    
!NEWLATTICE=  0.000000000000000    
!LATGRAD_VAR=FALSE
!SEW_LATTICE=  1.000000000000000    
!AIC_ONEEL=  0.000000000000000    
!LOCAL=  0.000000000000000    
!SAVEDOM= -1.000000000000000    
!RESTDOM= -1.000000000000000    
!SAVEDOM_HF= -1.000000000000000    
!RESTDOM_HF= -1.000000000000000    
!HESSREC=  0.000000000000000    
!FREQREC=  0.000000000000000    
!NMODREC=  0.000000000000000    
!GTASKS=  0.000000000000000    
!HTASKS=  0.000000000000000    
!SAVEDOM_EOM= -1.000000000000000    
!RESTDOM_EOM= -1.000000000000000    
!GRADSTATE= -1.000000000000000    
!DEBUG=  0.000000000000000    
!CFIT_CPHF=  0.000000000000000    
!RDOMAUX_CPHF=  0.000000000000000    
!THRAO_CPHF= 0.1000000000000000E-11
!THRMO_CPHF= 0.1000000000000000E-11
!THROV_CPHF= 0.1000000000000000E-11
!THRSW_CPHF= 0.1000000000000000E-11
!THRPROD_CPHF= 0.1000000000000000E-11
!THRAOPR_CPHF= 0.1000000000000000E-11
!CFIT_SCFGRD=  0.000000000000000    
!RDOMAUX_SCFGRD=  0.000000000000000    
!THRAO_SCFGRD= 0.1000000000000000E-11
!THRMO_SCFGRD= 0.1000000000000000E-11
!THROV_SCFGRD= 0.1000000000000000E-11
!THRSW_SCFGRD= 0.1000000000000000E-11
!THRPROD_SCFGRD= 0.1000000000000000E-11
!THRAOPR_SCFGRD= 0.1000000000000000E-11
!LOCFIT_SCF=  0.000000000000000    
!LOCFIT_MP2=  0.000000000000000    
_RIDOM=  0.000000000000000    
!CC2_METHOD=  0.000000000000000    
_BASIS2006=FALSE
_SVDDEL= -1.000000000000000    
_SVDDELA= -1.000000000000000    
_SVDDELP= -1.000000000000000    
_SVDDELF= -1.000000000000000    
_SVDDELS= -1.000000000000000    
_SVDDEL_ABS= -1.000000000000000    
_SVDDELA_ABS= -1.000000000000000    
_SVDDELP_ABS= -1.000000000000000    
_SVDDELF_ABS= -1.000000000000000    
_SVDDELS_ABS= -1.000000000000000    
_MAXBASIS=  0.000000000000000    
!OPT_CONICAL=  0.000000000000000    
!CLEARSP_JGRID=  0.000000000000000    
_GRDHYBR=  0.000000000000000    
_STATEGRAD=  1.000000000000000    
_4EXT_NDISKS=  1.000000000000000    
!EMBEDFLAG=  1.000000000000000    
!EMBED=FALSE
!EMBED_F12=FALSE
!EMBEDNUC=  0.000000000000000    
_EMBEDENERGY=  0.000000000000000    
!EMBED_DFC=FALSE
!NUM_VOIDS=  0.000000000000000    
_IBODY=  0.000000000000000    
_EMBE_CORR=  0.000000000000000    
!EMBED_PROJ=FALSE
!EMB_PROJ_ZMU=  1000000.000000000    
!CORRECTION_HF=  0.000000000000000    
!EMBED_AORB=  0.000000000000000    
!EMBED_NACORR=  0.000000000000000    
!EMBED_MP2=FALSE
!EMBED_TRUNC_PERTURBATION=FALSE
!EMBED_FROZEN=  0.000000000000000    
!EMBED_ACTIVE=  0.000000000000000    
_CHANGE_BASIS=FALSE
_RESTORE_BASIS=FALSE
_FIX_EMBED_GUESS=FALSE
_EMBED_SCF=FALSE
_HUZINAGA_T=FALSE
_HUZINAGA_F=FALSE
_HUZINAGA=FALSE
_HUZINAGA_CORRECT=FALSE
!FASTLATGRAD=  1.000000000000000    
!FASTVLAMBDA= -1.000000000000000    
!IFORCE= -1.000000000000000    
!USESYM= -1.000000000000000    
_SINDEX=  0.000000000000000    
_AVDOM_OSV=  0.000000000000000    
_AVDOM_PNO=  0.000000000000000    
_AVDOM_PAO=  0.000000000000000    
_AVDOM_LMO=  0.000000000000000    
_CC2OSV_FLAG=  0.000000000000000    
_EOMCCSD_CONV=FALSE
_TMADC2_FLAG=FALSE
_PROPADC2_FLAG=FALSE
_LEN_VirQ=  0.000000000000000    
_GRDCC2LR_FLAG=FALSE
_GRDADC2_FLAG=FALSE
_DMX_CC=-0.2330690179700667E-02
_DMY_CC=-0.1970611500489827E-02
_DMZ_CC=  3.607147923733216    
_DMX_NUC=-0.1675268173999879E-02
_DMY_NUC=-0.1173644429999713E-02
_DMZ_NUC=  2.670656757636000    
_RO_VGLOBAL=  0.000000000000000    
_OPT=FALSE
_FREQ=FALSE
_HESS=FALSE
_CMRCC_callName=EMPTY
_CMRCC_callCount=  0.000000000000000    
_GECCO_CIROOT=  1.000000000000000    
_SYM_CATION=  0.000000000000000    
_MON_A=FALSE
_MON_B=FALSE
R1=  1.078300000000000    
R2=  1.078300000000000    
R3=  1.078300000000000    
A2=  119.9907000000000    
A3=  119.9953000000000    
D3=  179.8799000000000    
DH1=  89.69940000000000    
ANG1=  89.76250000000000    
BB=  3.800000000000000    
GX1= 0.2831574483766049E-03
GY1= 0.1983719189312162E-03
GZ1=-0.4514001791427795    
GX2= 0.7228960537540130E-01
GY2=  2.036595218874603    
GZ2=-0.4418956193479256    
GX3=  1.728013827506899    
GY3= -1.080126911114569    
GZ3=-0.4457967811843470    
GX4= -1.799375419339464    
GY4=-0.9554617591357786    
GZ4=-0.4628065106047131    
GX5=-0.4302226405160041E-02
GY5=-0.3370424567548602E-02
GZ5=  6.729556743630909    
CBSEN= -40.19349758114369    
[Atoms] Angs
C     1    6         0.0001498405        0.0001049739       -0.2388706878
H     2    1         0.0382540117        1.0777197777       -0.2338410914
H     3    1         0.9144255376       -0.5715785462       -0.2359054973
H     4    1        -0.9521884658       -0.5056085888       -0.2449066585
H     5    1        -0.0022766402       -0.0017835519        3.5611280682
[GTO]
   1 0
 s    9  1.00
  0.6665000000D+04  0.6920001793D-03
  0.1000000000D+04  0.5329001381D-02
  0.2280000000D+03  0.2707700701D-01
  0.6471000000D+02  0.1017180264D+00
  0.2106000000D+02  0.2747400712D+00
  0.7495000000D+01  0.4485641162D+00
  0.2797000000D+01  0.2850740738D+00
  0.5215000000D+00  0.1520400394D-01
  0.1596000000D+00 -0.3191000827D-02
 s    9  1.00
  0.6665000000D+04 -0.1460000642D-03
  0.1000000000D+04 -0.1154000508D-02
  0.2280000000D+03 -0.5725002519D-02
  0.6471000000D+02 -0.2331201026D-01
  0.2106000000D+02 -0.6395502813D-01
  0.7495000000D+01 -0.1499810660D+00
  0.2797000000D+01 -0.1272620560D+00
  0.5215000000D+00  0.5445292395D+00
  0.1596000000D+00  0.5804962554D+00
 s    9  1.00
  0.6665000000D+04  0.0000000000D+00
  0.1000000000D+04  0.0000000000D+00
  0.2280000000D+03  0.0000000000D+00
  0.6471000000D+02  0.0000000000D+00
  0.2106000000D+02  0.0000000000D+00
  0.7495000000D+01  0.0000000000D+00
  0.2797000000D+01  0.0000000000D+00
  0.5215000000D+00  0.0000000000D+00
  0.1596000000D+00  0.1000000000D+01
 p    4  1.00
  0.9439000000D+01  0.3810902127D-01
  0.2002000000D+01  0.2094801169D+00
  0.5456000000D+00  0.5085572839D+00
  0.1517000000D+00  0.4688422617D+00
 p    4  1.00
  0.9439000000D+01  0.0000000000D+00
  0.2002000000D+01  0.0000000000D+00
  0.5456000000D+00  0.0000000000D+00
  0.1517000000D+00  0.1000000000D+01
 d    1  1.00
  0.5500000000D+00  0.1000000000D+01
  
   2 0
 s    4  1.00
  0.1301000000D+02  0.1968498999D-01
  0.1962000000D+01  0.1379769298D+00
  0.4446000000D+00  0.4781477569D+00
  0.1220000000D+00  0.5012397451D+00
 s    4  1.00
  0.1301000000D+02  0.0000000000D+00
  0.1962000000D+01  0.0000000000D+00
  0.4446000000D+00  0.0000000000D+00
  0.1220000000D+00  0.1000000000D+01
 p    1  1.00
  0.7270000000D+00  0.1000000000D+01
  
   3 0
 s    4  1.00
  0.1301000000D+02  0.1968498999D-01
  0.1962000000D+01  0.1379769298D+00
  0.4446000000D+00  0.4781477569D+00
  0.1220000000D+00  0.5012397451D+00
 s    4  1.00
  0.1301000000D+02  0.0000000000D+00
  0.1962000000D+01  0.0000000000D+00
  0.4446000000D+00  0.0000000000D+00
  0.1220000000D+00  0.1000000000D+01
 p    1  1.00
  0.7270000000D+00  0.1000000000D+01
  
   4 0
 s    4  1.00
  0.1301000000D+02  0.1968498999D-01
  0.1962000000D+01  0.1379769298D+00
  0.4446000000D+00  0.4781477569D+00
  0.1220000000D+00  0.5012397451D+00
 s    4  1.00
  0.1301000000D+02  0.0000000000D+00
  0.1962000000D+01  0.0000000000D+00
  0.4446000000D+00  0.0000000000D+00
  0.1220000000D+00  0.1000000000D+01
 p    1  1.00
  0.7270000000D+00  0.1000000000D+01
  
   5 0
 s    4  1.00
  0.1301000000D+02  0.1968498999D-01
  0.1962000000D+01  0.1379769298D+00
  0.4446000000D+00  0.4781477569D+00
  0.1220000000D+00  0.5012397451D+00
 s    4  1.00
  0.1301000000D+02  0.0000000000D+00
  0.1962000000D+01  0.0000000000D+00
  0.4446000000D+00  0.0000000000D+00
  0.1220000000D+00  0.1000000000D+01
 p    1  1.00
  0.7270000000D+00  0.1000000000D+01


[MO]
 Sym=      1.1
 Ene=     -11.2298
 Spin= Alpha
 Occup=    2.000000
1 1.00137671052781
2 0.007990641692388
3 -0.007992855370500
4 -0.000000083152085
5 -0.000000029901704
6 0.000012251064614
7 0.000000020518557
8 -0.000000217314439
9 -0.000013306452651
10 0.000363980159923
11 0.000363195054472
12 -0.000727175214395
13 0.000000038676604
14 0.000006238303442
15 0.000004884979390
16 -0.000694843081188
17 0.001600640432322
18 0.000018364930218
19 0.000520419948377
20 0.000003163846393
21 -0.000695496694223
22 0.001600886937761
23 0.000441580727882
24 -0.000276318804920
25 0.000002167010407
26 -0.000695738150346
27 0.001601059138635
28 -0.000460042606509
29 -0.000244447885272
30 -0.000002179006384
31 -0.000069300087383
32 0.000094798292206
33 -0.000000018984616
34 -0.000000015025149
35 -0.000000846985882
 Sym=      2.1
 Ene=      -0.8993
 Spin= Alpha
 Occup=    2.000000
1 -0.028186528513365
2 0.75505406400030
3 -0.14588048069242
4 0.000003791812954
5 0.000023439588425
6 0.000141029562649
7 -0.000003352521075
8 -0.000015594387508
9 0.000009399208479
10 0.001655237348555
11 0.001656109381874
12 -0.003311346730429
13 -0.000000206534139
14 0.000028301052712
15 0.000022180898335
16 0.35077254675877
17 -0.14534401403294
18 -0.001006614808820
19 -0.028475504756070
20 -0.000142573634243
21 0.35075967970169
22 -0.14534501084084
23 -0.024158953532737
24 0.015107981844222
25 -0.000087990544623
26 0.35075882194921
27 -0.14534596618660
28 0.025165268313937
29 0.013364693960334
30 0.000149970682855
31 0.001228156164746
32 0.001000305154077
33 0.000000052048416
34 0.000000040403255
35 -0.000235714906056
 Sym=      3.1
 Ene=      -0.5708
 Spin= Alpha
 Occup=    2.000000
1 0.000000159886410
2 -0.000009298190809
3 -0.000000808610793
4 0.63821608901336
5 0.040615104961083
6 0.003320630300060
7 -0.12036667220737
8 -0.007660257229107
9 -0.000626639949778
10 -0.003484016560305
11 0.003484804878788
12 -0.000000788318484
13 -0.023500151758956
14 -0.000110031786539
15 -0.000100797405048
16 0.063006890445451
17 -0.017870827712125
18 0.012533481845213
19 -0.002667934570782
20 0.000046801008305
21 0.51844521618182
22 -0.14704571486851
23 -0.011591056500982
24 0.015966792904765
25 -0.000036313834864
26 -0.58144813058937
27 0.16491287968711
28 -0.015669420684793
29 -0.014236035766807
30 -0.000087373560845
31 0.000009670314039
32 0.000007780078839
33 0.000113854145256
34 0.000007097016174
35 -0.000003137410798
 Sym=      4.1
 Ene=      -0.5707
 Spin= Alpha
 Occup=    2.000000
1 0.000000680451733
2 -0.000036128038918
3 -0.000005061747553
4 -0.040628025942146
5 0.63822522159158
6 0.002277205017159
7 0.007660137957222
8 -0.12033780376375
9 -0.000429621072079
10 -0.020359038986532
11 0.020359564373576
12 -0.000000525387044
13 0.004024450688334
14 -0.000100988292459
15 0.000112496699490
16 0.63501687289827
17 -0.18008721543017
18 -0.002043326259830
19 -0.022345246870698
20 -0.000147070340232
21 -0.37206484022352
22 0.10551351603519
23 0.016592916594314
24 0.001777275308788
25 0.000118507156736
26 -0.26293932681312
27 0.074565655309343
28 -0.013612991479051
29 0.005855362783222
30 -0.000024112923882
31 0.000006637726005
32 0.000005079431932
33 -0.000007420284189
34 0.000114231524777
35 -0.000002133152192
 Sym=      5.1
 Ene=      -0.1615
 Spin= Alpha
 Occup=    1.097568
1 0.000197763401938
2 -0.005949048982694
3 -0.003059197280026
4 -0.003113325271201
5 -0.002439636197964
6 0.61858211955376
7 -0.000363915869323
8 -0.000285400188631
9 0.073246250565864
10 -0.000343821835003
11 -0.000348152819018
12 0.000691974654022
13 0.000002644993620
14 -0.000003931189324
15 -0.000001908573008
16 -0.002697940664215
17 0.003173326760801
18 -0.000068677616617
19 -0.000068733246472
20 0.013750259499318
21 -0.002682429713049
22 0.003164630314808
23 -0.000081479361437
24 -0.000045042930864
25 0.013750300250715
26 -0.002613214143713
27 0.003126692972759
28 -0.000052778688698
29 -0.000045227044077
30 0.013746166976846
31 0.68761169402452
32 0.018140336565622
33 0.000001363627113
34 0.000001078701918
35 -0.000561618546454
 Sym=      6.1
 Ene=      -0.1260
 Spin= Alpha
 Occup=    0.902432
1 0.000550521701771
2 -0.002858561565791
3 -0.003631859325095
4 0.003165126496768
5 0.002480300119001
6 -0.64626028756603
7 0.000357698756009
8 0.000280090488512
9 -0.073447892184648
10 -0.000263825239984
11 -0.000268145231488
12 0.000531970471472
13 0.000002674183111
14 -0.000004937061286
15 -0.000005143588850
16 -0.002565720278832
17 0.002241722448023
18 0.000069557153988
19 0.000064142230915
20 -0.013915431495249
21 -0.002550837400178
22 0.002234204253546
23 0.000077424534920
24 0.000049116856299
25 -0.013917320438750
26 -0.002484340260059
27 0.002201643930601
28 0.000061562024063
29 0.000050189215098
30 -0.013920939721625
31 0.72781775797975
32 -0.019140058599744
33 0.000001068394835
34 0.000000854593866
35 0.001358125250637
 Sym=      7.1
 Ene=       0.2021
 Spin= Alpha
 Occup=    0.000000
1 0.080279514515212
2 -0.21807019843710
3 -2.08355111644874
4 0.000018935545990
5 0.000012929312762
6 -0.000617518037321
7 0.000042831985577
8 -0.000020623533321
9 -0.002884316765457
10 -0.014207768522033
11 -0.014193876686051
12 0.028401645208084
13 -0.000000987507535
14 -0.000243505559772
15 -0.000190770701890
16 0.049710645649595
17 1.02214479771268
18 -0.000659263052593
19 -0.018665846720129
20 -0.000033811955132
21 0.049739277404697
22 1.02218181530359
23 -0.015836025192346
24 0.009908078641279
25 0.000001831274191
26 0.049737847153221
27 1.02233101724881
28 0.016498550755571
29 0.008766051656649
30 0.000157229308318
31 -0.074928330713213
32 0.053388440784772
33 0.000014316969214
34 0.000011318580768
35 -0.003585373064020
 Sym=      8.1
 Ene=       0.2715
 Spin= Alpha
 Occup=    0.000000
1 -0.000002052385595
2 0.000002016979268
3 0.000063669199697
4 0.44107080521040
5 0.033651145598290
6 0.002318802932508
7 1.25049955432445
8 0.095400463899419
9 0.006587393732200
10 -0.003928822138988
11 0.003932871268681
12 -0.000004049129693
13 -0.024641383477520
14 -0.000098941907635
15 -0.000103043121083
16 -0.002137304182038
17 -0.24449246136014
18 0.003666712225389
19 0.002983051078610
20 0.000031673094255
21 -0.015506209906164
22 -1.76888329247792
23 0.020210376598765
24 -0.010125023812894
25 0.000077636419040
26 0.017668487432010
27 2.01325418488198
28 0.023295479796598
29 0.010740983670613
30 0.000137177319612
31 0.000634825587957
32 -0.000434456367314
33 -0.001363816313465
34 -0.000092880794489
35 0.000036031129874
 Sym=      9.1
 Ene=       0.2715
 Spin= Alpha
 Occup=    0.000000
1 0.000004328427774
2 0.000021645805956
3 -0.000099937046282
4 0.033659770891651
5 -0.44109452221637
6 -0.001547742433952
7 0.095416959113518
8 -1.25032092248436
9 -0.004395959031137
10 0.021336903022860
11 -0.021345268045999
12 0.000008365023139
13 -0.004538594663493
14 0.000105940527014
15 -0.000137537965494
16 0.019223681649512
17 2.18351101831275
18 -0.000583438487269
19 -0.027780216153370
20 -0.000131825758184
21 -0.011519764891581
22 -1.30333730930397
23 0.012525846063894
24 -0.011243501212245
25 0.000031468322598
26 -0.007789185171575
27 -0.87995837129679
28 -0.008341864805559
29 -0.008159831329475
30 -0.000064175124429
31 -0.000431882568731
32 0.000296318711658
33 -0.000117338505717
34 0.001391254570478
35 -0.000024453584029
 Sym=     10.1
 Ene=       0.6158
 Spin= Alpha
 Occup=    0.000000
1 -0.002587035860333
2 -0.005586425470208
3 0.021642137778254
4 -0.018287071376696
5 -0.45047011545026
6 -0.029442309106162
7 0.068614402338197
8 1.67861710611929
9 0.037219334944980
10 0.10395717360903
11 -0.10707608280993
12 0.003118909200891
13 -0.007941504181633
14 0.000545619901026
15 -0.000670696613964
16 -1.33826751557885
17 0.42783473374927
18 0.000162873320715
19 -0.006813349412144
20 -0.001435750916641
21 0.64074147849494
22 -0.20309613752926
23 0.033634445538465
24 0.051019127665031
25 -0.001006751701581
26 0.65353095162360
27 -0.20697719109916
28 -0.029801847668723
29 0.052896161919649
30 -0.001318842899562
31 -0.096613590026538
32 0.10577031084571
33 0.000076722632521
34 0.001801643385060
35 -0.000391832751010
 Sym=     11.1
 Ene=       0.6159
 Spin= Alpha
 Occup=    0.000000
1 -0.003437001685125
2 -0.007441259820677
3 0.028489300349832
4 -0.44993187412528
5 0.020163571194127
6 -0.038104428974884
7 1.67732853059804
8 -0.074645612238904
9 0.047571490650962
10 0.004425888561577
11 -0.008576546360877
12 0.004150657799300
13 0.12176928431783
14 0.000340406005974
15 0.000557987694997
16 -0.007557152314232
17 0.004153083628609
18 0.070180120567488
19 -0.004128225788114
20 -0.001469856573450
21 -1.17076097026157
22 0.37452373882962
23 0.012841893806314
24 0.032792568295695
25 -0.001635463139346
26 1.11962282372241
27 -0.35437732166648
28 0.014062558366145
29 -0.032955861802173
30 -0.001845720295302
31 -0.12572299979732
32 0.13764770239490
33 0.001804595053151
34 -0.000077208415738
35 -0.000504999276632
 Sym=     12.1
 Ene=       0.6183
 Spin= Alpha
 Occup=    0.000000
1 -0.051631133118586
2 -0.11138401296246
3 0.42510834214769
4 0.034467207232582
5 0.024413507248434
6 -0.54260201856635
7 -0.12000349371463
8 -0.084287020240277
9 0.59778914208441
10 -0.037459313634941
11 -0.025522538623431
12 0.062981852258373
13 -0.007882649525926
14 -0.000501682873176
15 -0.000354715500421
16 -0.22858011843733
17 0.10296696844332
18 -0.005590378838315
19 -0.025357148703248
20 -0.027223483972657
21 -0.25260084669810
22 0.11111639788879
23 -0.024640615726887
24 0.009033899782392
25 -0.027207035684471
26 -0.40839823321630
27 0.16221141664460
28 0.023733463985420
29 0.011797552914034
30 -0.027057989984044
31 -1.84553664191971
32 2.02287827075411
33 -0.000127543120463
34 -0.000089464361269
35 -0.006525243953863
 Sym=     13.1
 Ene=       0.7254
 Spin= Alpha
 Occup=    0.000000
1 0.098001046675813
2 0.11458522646335
3 -0.55208829777399
4 0.004148737812189
5 0.003433773029818
6 -0.82349557695938
7 -0.005143575143692
8 -0.004740215573742
9 0.99038284172001
10 0.11359955007987
11 0.11358519968000
12 -0.22718474975988
13 -0.000007916924403
14 0.001952903650653
15 0.001531088953325
16 0.94719383267207
17 -0.67873521763879
18 0.003679351011152
19 0.099978902463887
20 -0.031250942750640
21 0.94664342503793
22 -0.67895652037053
23 0.084882700261254
24 -0.052899175605901
25 -0.031441492055093
26 0.94647556794151
27 -0.67900181785768
28 -0.088110985696319
29 -0.046782309978440
30 -0.032276381492376
31 -0.029851929572270
32 0.025329012368794
33 -0.000007735438881
34 -0.000006534034377
35 -0.004959325049280
 Sym=     14.1
 Ene=       0.7649
 Spin= Alpha
 Occup=    0.000000
1 0.038140217178371
2 -0.011487135023467
3 -0.12378300959454
4 -0.004753683338697
5 -0.003618525885738
6 1.10984463710488
7 0.005104010251668
8 0.003633586324814
9 -1.36559602117009
10 0.070455832499034
11 0.070575014115028
12 -0.14103084661406
13 -0.000097091341372
14 0.001296241768332
15 0.001015349626014
16 0.55907880586159
17 -0.45952251113291
18 0.001973312555851
19 0.063228763862588
20 0.036696706803362
21 0.55850332574856
22 -0.45950458747482
23 0.053562101874119
24 -0.033887382533282
25 0.036552885861763
26 0.55684017708323
27 -0.45859577386344
28 -0.056314539284659
29 -0.029987315756812
30 0.035933515942111
31 -1.02049483447969
32 1.18028611448240
33 -0.000014796777753
34 -0.000011698351373
35 0.021487511555859
 Sym=     15.1
 Ene=       0.9044
 Spin= Alpha
 Occup=    0.000000
1 0.000010859186354
2 0.000007008612793
3 0.000021383957073
4 0.074778448194902
5 -1.24044271138169
6 -0.004316922393472
7 -0.13880682317823
8 2.30255354509262
9 0.008086998094168
10 -0.29381590082430
11 0.29387554698720
12 -0.000059646162905
13 0.056914284568749
14 -0.001481093779377
15 0.001938207247911
16 0.59083066991102
17 -2.00280868774334
18 0.017028320217009
19 0.28888612089545
20 0.001359832081390
21 -0.34417379860759
22 1.16734238730428
23 -0.17377407084408
24 0.040135360872076
25 -0.000793373428448
26 -0.24614029817844
27 0.83495872336286
28 0.13695617887560
29 -0.000752570220094
30 0.000613666883678
31 -0.000409853978743
32 0.000522233234972
33 0.000154315441245
34 -0.002052393780215
35 0.000030997541520
 Sym=     16.1
 Ene=       0.9044
 Spin= Alpha
 Occup=    0.000000
1 -0.000005599036221
2 -0.000057380019878
3 0.000112142260075
4 -1.24042950208181
5 -0.074756168330361
6 -0.006266967759850
7 2.30265313802177
8 0.13877210819827
9 0.011730808467588
10 -0.049258539054596
11 0.049306679659144
12 -0.000048140604548
13 -0.33924281157894
14 -0.001262806122549
15 -0.001440414783669
16 0.056726543889731
17 -0.19204549920107
18 -0.070020656310588
19 0.030233978322773
20 -0.000213910017894
21 0.48341886173630
22 -1.63858865083024
23 0.17873703405989
24 -0.16058175848991
25 0.000387829550543
26 -0.53979184462823
27 1.83023228527391
28 0.21960111717364
29 0.15013398436181
30 0.001534561847008
31 -0.000535092793740
32 0.000686407036685
33 -0.001981157735913
34 -0.000088810648828
35 0.000042093335790
 Sym=     17.1
 Ene=       1.0723
 Spin= Alpha
 Occup=    0.000000
1 -0.79620345268202
2 -3.62613215974252
3 6.14139178682227
4 0.000059259372037
5 0.000006747353118
6 -0.013760992338843
7 -0.000056475525591
8 0.000160347083132
9 0.018650193077295
10 0.024929400133843
11 0.024780659108997
12 -0.049710059242840
13 0.000023475016321
14 0.000403197013860
15 0.000315252436967
16 -0.15285754751159
17 -0.88492654156499
18 0.006737178300664
19 0.19040672296585
20 0.001418098279958
21 -0.15280511501952
22 -0.88487972459078
23 0.16155871520117
24 -0.10102372920538
25 0.001059480873930
26 -0.15273987821066
27 -0.88499976114814
28 -0.16829269066864
29 -0.089375566866887
30 -0.000505087368515
31 0.078951001415440
32 -0.089425904257135
33 -0.000066606035815
34 -0.000052685174656
35 0.000362491806106
 Sym=     18.1
 Ene=       1.2183
 Spin= Alpha
 Occup=    0.000000
1 -0.000028236598472
2 -0.000121823540753
3 0.000185760233924
4 -0.000177968798089
5 -0.000010670387937
6 -0.000091563565849
7 -0.000154843647199
8 -0.000010986392746
9 0.000109388372362
10 -0.005278477275309
11 -0.000370232784155
12 0.005648710059464
13 -0.001991062270953
14 0.62454124685291
15 0.039842151819154
16 0.000010902836824
17 -0.000018595511410
18 0.000394344099540
19 -0.000188017298910
20 0.040876329456454
21 0.000375472953015
22 -0.000271958154975
23 -0.001554455688771
24 -0.000959877322618
25 0.33562808167475
26 -0.000502903658817
27 0.000335354275047
28 0.001888291841448
29 0.001194125672142
30 -0.37646411014533
31 0.000575173944234
32 -0.000683951059008
33 0.000249610245823
34 0.000015710490993
35 -0.000012639364954
 Sym=     19.1
 Ene=       1.2183
 Spin= Alpha
 Occup=    0.000000
1 -0.000019424904686
2 -0.000083816449523
3 0.000127856104682
4 0.000012174683112
5 -0.000178812461157
6 -0.000077845746806
7 0.000008665499212
8 -0.000153136719115
9 0.000075691197589
10 0.000885670064666
11 -0.004758287223867
12 0.003872617159201
13 -0.003051097029987
14 -0.039875177207315
15 0.62458369993292
16 0.000481558654351
17 -0.000342614504072
18 -0.002102273401680
19 -0.001706710479112
20 0.41113995787959
21 -0.000325016992189
22 0.000218000004138
23 0.001511667282400
24 0.001313572177956
25 -0.24092006720458
26 -0.000236406574324
27 0.000155003426459
28 0.000543667990075
29 0.001121493191897
30 -0.17015096075179
31 0.000393551071182
32 -0.000467869696449
33 -0.000016184683838
34 0.000250170475128
35 -0.000008236445989
 Sym=     20.1
 Ene=       1.5115
 Spin= Alpha
 Occup=    0.000000
1 -0.000083613800029
2 -0.000373867338728
3 0.000647253838457
4 -0.001872836434389
5 -0.000764932008659
6 -0.000036671075742