
 Working directory              : /scratch/cc//molpro.SVf9eJJZHa/
 Global scratch directory       : /scratch/cc//molpro.SVf9eJJZHa/
 Wavefunction directory         : /home/chimica2/cavallotti/wfu/
 Main file repository           : /scratch/cc//molpro.SVf9eJJZHa/

 id        : polimi

 Nodes     nprocs
 node-6-11    1
 Distribution of processes:   nprocs(total)=    2   nprocs(compute)=    1   nprocs(helper)=    1
 GA implementation: MPI file
 GA implementation (serial work in mppx): MPI file

 Using customized tuning parameters: mindgm=1; mindgv=20; mindgc=4; mindgr=1; noblas=0; minvec=7
 default implementation of scratch files=df  


 Variables initialized (1009), CPU time= 0.00 sec
  memory,         400 ,m
 
 symmetry, nosym; orient, noorient
 angstrom
 geomtyp=xyz
 geometry={
 5
 rotational dynamics
 C, -0.0848429, 0.0427439, -0.113468
 H, 0.531865, 0.219004, 0.753203
 H, 0.346277, 0.0924618, -1.10047
 H, -1.13157, -0.186201, 0.00682304
 H, 1.26364, -0.634209, 1.6915
 }
 
  basis=cc-pvdz
  {multi;closed, 4;occ, 6;wf, 10,1,0,;state,1;maxiter,40}
  if (iterations.ge.0) then
     {rs2,shift=0.2;orbital,IGNORE_ERROR;state,1}
     molpro_energy = energy +   40.192865169999997
  else
     molpro_energy = 10.0
  endif
 Commands initialized (810), CPU time= 0.01 sec, 661 directives.
 Default parameters read. Elapsed time= 0.16 sec

 Checking input...
 Passed
1


                                         ***  PROGRAM SYSTEM MOLPRO  ***
                                       Copyright, TTI GmbH Stuttgart, 2015
                                    Version 2021.2 linked Jun  2 2021 16:00:59


 **********************************************************************************************************************************
 LABEL *                                                                                 
  64 bit serial version                                                                  DATE: 03-Jun-23          TIME: 09:11:58  
 **********************************************************************************************************************************

 SHA1:             1987c3f1b0c3ae76932bc24993909f2d7ae6b1f1
 **********************************************************************************************************************************

 Memory per process:       400 MW
 Total memory per node:    400 MW

 GA preallocation disabled
 GA check disabled

 Variable memory set to 400.0 MW

 SETTING GEOMTYP        =    XYZ
 ZSYMEL=NOSYM
 ZUNIT=ANG

 SETTING BASIS          =    CC-PVDZ


 Recomputing integrals since basis changed


 Using spherical harmonics

 Library entry C      S cc-pVDZ              selected for orbital group  1
 Library entry C      P cc-pVDZ              selected for orbital group  1
 Library entry C      D cc-pVDZ              selected for orbital group  1
 Library entry H      S cc-pVDZ              selected for orbital group  2
 Library entry H      P cc-pVDZ              selected for orbital group  2


 PROGRAM * SEWARD (Integral evaluation for generally contracted gaussian basis sets)     Author: Roland Lindh, 1990

 Geometry written to block  1 of record 700


 Point group  C1  



 ATOMIC COORDINATES

 NR  ATOM    CHARGE       X              Y              Z

   1  C       6.00   -0.160329845    0.080774264   -0.214423444
   2  H       1.00    1.005079185    0.413857580    1.423347386
   3  H       1.00    0.654368693    0.174727479   -2.079586908
   4  H       1.00   -2.138357391   -0.351868894    0.012893677
   5  H       1.00    2.387933520   -1.198481316    3.196471740

 Bond lengths in Bohr (Angstrom)

 1-2  2.037502391  1-3  2.037497402  1-4  2.037509791
     ( 1.078199833)     ( 1.078197192)     ( 1.078203749)

 Bond angles

  2-1-3  119.97221230   2-1-4  120.02085509   3-1-4  120.00665376

 NUCLEAR CHARGE:                   10
 NUMBER OF PRIMITIVE AOS:          55
 NUMBER OF SYMMETRY AOS:           54
 NUMBER OF CONTRACTIONS:           34   (   34A   )
 NUMBER OF INNER CORE ORBITALS:     0   (    0A   )
 NUMBER OF OUTER CORE ORBITALS:     1   (    1A   )
 NUMBER OF VALENCE ORBITALS:        8   (    8A   )


 NUCLEAR REPULSION ENERGY   11.74888512

 Eigenvalues of metric

         1 0.133E-01 0.284E-01 0.352E-01 0.420E-01 0.461E-01 0.539E-01 0.767E-01 0.116E+00


 Contracted 2-electron integrals neglected if value below      1.0D-11
 AO integral compression algorithm  1   Integral accuracy      1.0D-11

     1.311 MB (compressed) written to integral file ( 60.2%)


 NUMBER OF SORTED TWO-ELECTRON INTEGRALS:     177310.     BUFFER LENGTH:  32768
 NUMBER OF SEGMENTS:   1  SEGMENT LENGTH:     177310      RECORD LENGTH: 524288

 Memory used in sort:       0.73 MW

 SORT1 READ      219389. AND WROTE      172172. INTEGRALS IN      1 RECORDS. CPU TIME:     0.01 SEC, REAL TIME:     0.01 SEC
 SORT2 READ      172172. AND WROTE      177310. INTEGRALS IN      5 RECORDS. CPU TIME:     0.02 SEC, REAL TIME:     0.03 SEC

 FILE SIZES:   FILE 1:    31.4 MBYTE,  FILE 4:     4.2 MBYTE,   TOTAL:     35.6 MBYTE

 OPERATOR DM      FOR CENTER  0  COORDINATES:    0.000000    0.000000    0.000000


 **********************************************************************************************************************************
 DATASETS  * FILE   NREC   LENGTH (MB)   RECORD NAMES
              1      19       29.47       500      610      700      900      950      970     1000      129      960     1100   
                                          VAR    BASINP    GEOM    SYMINP    ZMAT    AOBASIS   BASIS     P2S    ABASIS      S 
                                         1400     1410     1200     1210     1080     1600     1650     1300     1700   
                                           T        V       H0       H01     AOSYM     SMH    MOLCAS    ERIS     OPER   

 PROGRAMS   *        TOTAL       INT
 CPU TIMES  *         0.41      0.25
 REAL TIME  *         0.86 SEC
 DISK USED  *        34.26 MB
 **********************************************************************************************************************************

 PROGRAM * MULTI (Direct Multiconfiguration SCF)       Authors: P.J. Knowles, H.-J. Werner (1984)
                                                                D.A. Kreplin, P.J. Knowles, H.-J. Werner (2019)

 Number of closed-shell orbitals:   4 (   4 )
 Number of active  orbitals:        2 (   2 )
 Number of external orbitals:      28 (  28 )

 State symmetry 1

 Number of active electrons:   2    Spin symmetry=Singlet   Space symmetry=1
 Number of states:             1
 Number of CSFs:               3   (4 determinants, 4 intermediate states)

 Orbital guess generated from atomic densities. Full valence occupancy:    9

 Wavefunction dump at record             2140.2

 Convergence thresholds  0.10E-04 (gradient)  0.10E-05 (energy)
 
 Number of orbital rotations:  176  ( 8 closed/active, 112 closed/virtual, 0 active/active, 56 active/virtual )
 Total number of variables:    180
 
  Second-order MCSCF: L-BFGS accelerated
 
 ITER  MIC  NCI  NEG     ENERGY(VAR)    ENERGY(PROJ) ENERGY CHANGE       GRAD(0)  GRAD(ORB)   GRAD(CI)      STEP      TIME
   1    7    6    0    -40.01917773     -40.04819958   -0.02902185    0.16047533 0.00108017 0.00000000  0.19E+00      0.10
   2    8    7    0    -40.04811985     -40.04813874   -0.00001889    0.00580223 0.00000268 0.00000000  0.40E-02      0.20
   3    6    6    0    -40.04813875     -40.04813875   -0.00000000    0.00000716 0.00000000 0.00000000  0.48E-05      0.28

 CONVERGENCE REACHED!  Final gradient:    0.00000000 ( 0.58E-09)
                       Final energy:    -40.04813875
 
 First order charge density matrix for state 1.1 saved on record 2140.2 (density set 1)
 
 Results for state 1.1
 =====================
 !MCSCF STATE 1.1 Energy                       -40.048138754203
 Nuclear energy                                 11.74888512
 Kinetic energy                                 40.02359510
 One electron energy                           -76.12679281
 Two electron energy                            24.32976894
 Virial ratio                                    2.00061323
 
 !MCSCF STATE 1.1 Dipole moment                 -0.07719656     0.06215531    -0.09979565
 Dipole moment /Debye                           -0.19621408     0.15798304    -0.25365525
 
 No non-zero expectation values
 
 
 Natural orbital dump at molpro section 2140.2 (Orbital set 2)


 **********************************************************************************************************************************
 DATASETS  * FILE   NREC   LENGTH (MB)   RECORD NAMES
              1      20       29.77       500      610      700      900      950      970     1000      129      960     1100   
                                          VAR    BASINP    GEOM    SYMINP    ZMAT    AOBASIS   BASIS     P2S    ABASIS      S 
                                         1400     1410     1200     1210     1080     1600     1650     1300     1700     1380   
                                           T        V       H0       H01     AOSYM     SMH    MOLCAS    ERIS     OPER     JKOP   

              2       4        2.72       700     1000      520     2140   
                                         GEOM     BASIS   MCVARS    MCSCF   

 PROGRAMS   *        TOTAL     MULTI       INT
 CPU TIMES  *         0.66      0.25      0.25
 REAL TIME  *         1.27 SEC
 DISK USED  *        34.26 MB
 **********************************************************************************************************************************


 PROGRAM * RS2 (Multireference RS Perturbation Theory)     Authors: H.-J. Werner (1993), P. Celani (1998)


 Level shift= 0.20

 Convergence thresholds:  THRVAR = 1.00D-08  THRDEN = 1.00D-06

 Number of optimized states: 1  Roots:    1
 Number of reference states: 1  Roots:    1

 Reference symmetry:                   1   Singlet 
 Number of electrons:                 10
 Maximum number of shells:             4
 Maximum number of spin couplings:     5

 Reference space:        3 conf        3 CSFs
 N elec internal:       15 conf       15 CSFs
 N-1 el internal:       23 conf       32 CSFs
 N-2 el internal:       25 conf       52 CSFs

 Number of electrons in valence space:                      8
 Maximum number of open shell orbitals in reference space:  2
 Maximum number of open shell orbitals in internal spaces:  6


 Number of core orbitals:           1 (   1 )
 Number of closed-shell orbitals:   3 (   3 )
 Number of active  orbitals:        2 (   2 )
 Number of external orbitals:      28 (  28 )

 Molecular orbitals read from record     2140.2  Type=MCSCF/NATURAL (state 1.1)

 Integral transformation finished. Total CPU:   0.01 sec, npass=  1  Memory used:   0.11 MW


 Number of p-space configurations:   3

 Reference wavefunction optimized for reference space (refopt=1)

 State     Reference Energy 
     1       -40.04813875

 Number of blocks in overlap matrix:     2   Smallest eigenvalue:  0.10D+01
 Number of N-2 electron functions:      22
 Number of N-1 electron functions:      32

 Number of internal configurations:                   15
 Number of singly external configurations:           896
 Number of doubly external configurations:          8680
 Total number of contracted configurations:         9591
 Total number of uncontracted configurations:      21351

 Weight factors for SA-density in H0:    1.000000

 FIMAX=  0.29D-01  FXMAX=  0.51D-13  DIAG=  F  T  NOREF=1  NOINT=0  IHPPD=2

 Nuclear energy:                      11.74888512
 Core energy:                        -35.75322122
 Zeroth-order valence energy:         -4.47651469
 Zeroth-order total energy:          -28.48085079
 First-order energy:                 -11.56728796

 Using uncontracted singles

 Diagonal Coupling coefficients finished.               Storage:     883 words, CPU-Time:      0.00 seconds.
 Energy denominators for pairs finished in 0 passes.    Storage:    2295 words, CPU-time:      0.00 seconds.

 A level shift of 0.20 is applied.

  ITER. STATE  ROOT     SQ.NORM     CORR.ENERGY   TOTAL ENERGY   ENERGY CHANGE       DEN1      VAR(S)    VAR(P)      TIME
    1     1     1     1.00717640    -0.00143528   -40.04957404    -0.00143528    -0.12938449  0.72D-02  0.36D-01     0.01
    2     1     1     1.04317970    -0.13812759   -40.18626634    -0.13669231    -0.00002873  0.27D-04  0.14D-04     0.02
    3     1     1     1.04321032    -0.13820611   -40.18634486    -0.00007852    -0.00004737  0.23D-06  0.60D-07     0.02
    4     1     1     1.04323193    -0.13821089   -40.18634964    -0.00000478    -0.00000073  0.24D-08  0.88D-09     0.02
    5     1     1     1.04323256    -0.13821102   -40.18634977    -0.00000013    -0.00000033  0.40D-10  0.92D-11     0.02
    6     1     1     1.04323270    -0.13821105   -40.18634980    -0.00000003    -0.00000001  0.68D-12  0.17D-12     0.02

 Energies without level shift correction:

    6     1     1     1.04323270    -0.12956451   -40.17770326

 Energy contributions for state 1.1:
 ===================================

            Energy contr.      SQ.Norm of FOWF
 Space I     -0.00016008          0.00010586
 Space S     -0.01495808          0.00728914
 Space P     -0.11444634          0.03583770


 =====================================
 Analysis of CPU times by interactions
 =====================================

       I      S      P

 I   0.0%
 S  50.0%   0.0%
 P   0.0%   0.0%   0.0%

 Initialization:  50.0%
 Other:            0.0%

 Total CPU:        0.0 seconds
 =====================================



 gnormi=  1.00010586  gnorms=  0.00728914  gnormp=  0.03583770  gnorm=  1.04323270
 ecorri= -0.00016008  ecorrs= -0.01495808  ecorrp= -0.11444634  ecorr= -0.13821105

 Reference coefficients greater than 0.0500000
 =============================================
 22220           0.8304912
 22202          -0.5570318


 RESULTS FOR STATE 1.1
 =====================

 Coefficient of reference function:   C(0) = 1.00000000 (fixed)   1.00000000 (relaxed)

 Energy contributions of configuration classes

 CLASS          SQ.NORM        ECORR1        ECORR2
 +++++++++++++++++++++++++++++++++++++++++++++++++++
 Internals    0.00010586   -0.00016008    0.13786951
 Singles      0.00728914   -0.01495808   -0.03191263
 Pairs        0.03583770   -0.11444634   -0.24416792
 Total        1.04323270   -0.12956450   -0.13821105
 +++++++++++++++++++++++++++++++++++++++++++++++++++


 Reference energy                     -40.04813875
 Nuclear energy                        11.74888512
 Kinetic energy                        40.11931200
 One electron energy                  -76.06322347
 Two electron energy                   24.12798855
 Virial quotient                       -1.00167096
 Correlation energy                    -0.13821105
 !RSPT2 STATE 1.1 Energy              -40.186349800323

 Properties without orbital relaxation:

 !RSPT2 STATE 1.1 Dipole moment        -0.08012441     0.06457870    -0.10344274
 Dipole moment /Debye                  -0.20365592     0.16414268    -0.26292523


 **********************************************************************************************************************************
 DATASETS  * FILE   NREC   LENGTH (MB)   RECORD NAMES
              1      20       29.77       500      610      700      900      950      970     1000      129      960     1100   
                                          VAR    BASINP    GEOM    SYMINP    ZMAT    AOBASIS   BASIS     P2S    ABASIS      S 
                                         1400     1410     1200     1210     1080     1600     1650     1300     1700     1380   
                                           T        V       H0       H01     AOSYM     SMH    MOLCAS    ERIS     OPER     JKOP   

              2       4        2.72       700     1000      520     2140   
                                         GEOM     BASIS   MCVARS    MCSCF   

 PROGRAMS   *        TOTAL       RS2     MULTI       INT
 CPU TIMES  *         0.73      0.07      0.25      0.25
 REAL TIME  *         1.44 SEC
 DISK USED  *        34.26 MB
 **********************************************************************************************************************************
 SETTING MOLPRO_ENERGY  =         0.00651537  AU                              

 RS2/cc-pVDZ energy=    -40.186349800323

             RS2           MULTI
    -40.18634980    -40.04813875
 **********************************************************************************************************************************
 Molpro calculation terminated
