[Molden Format]
[Molpro variables]
_NUMVAR=  1038.000000000000    
_AVOGAD= 0.6022140760000000E+24
_BOLTZ= 0.1380649000000000E-22
_CLIGHTSI=  299792458.0000000    
_JOULE= 0.4359744722207100E-17
_JPCAL=  4.184000000000000    
_PLANCK= 0.6626070150000000E-33
_BOHR= 0.5291772109030000E-10
_ECHARG= 0.1602176634000000E-18
_ENULL= 0.8854187812800001E-11
_MU= 0.1660539066600000E-26
_EMASS= 0.9109383701500001E-30
_AMU2AU=  1822.888486217313    
_CLIGHT=  29979245800.00000    
_EV= 0.3674932217565494E-01
_KJOULE= 0.3808798847133432E-03
_KJOULE/MOL= 0.3808798847133432E-03
_CM= 0.4556335252912009E-05
_CM-1= 0.4556335252912009E-05
_DEB2SI= 0.3335640951981520E-29
_KCAL= 0.1593601437640628E-02
_KCAL/MOL= 0.1593601437640628E-02
_KELVIN= 0.3166811563455608E-05
_HERTZ= 0.1519829846057038E-15
_HZ= 0.1519829846057038E-15
_TOA= 0.5291772109030000    
_TOANG= 0.5291772109030000    
_TORAD= 0.1745329251994330E-01
_TOCM=  219474.6313631965    
_TODEBYE=  2.541746473194078    
_TOE= 0.4803204712570263E-09
_TOEV=  27.21138624598803    
_TOHERTZ=  6579683920501656.    
_TOHZ=  6579683920501656.    
_TOK=  315775.0248040668    
_TOKCAL=  627.5094740630558    
_TOKELVIN=  315775.0248040668    
_TOKJ=  2625.499639479825    
_TOKJOULE=  2625.499639479825    
_TOKG= 0.1660539066600000E-26
_ANG=  1.889726124625770    
_ANGSTROM=  1.889726124625770    
_RPAREF=  0.000000000000000    
_RPADISS=  0.000000000000000    
_IGNORE_UNDEF=  2.000000000000000    
_STRICTCHECK=  0.000000000000000    
!SEWARD=  0.000000000000000    
!MULTI=  0.000000000000000    
!DFMULTI=  0.000000000000000    
_SEW_ONEEL=  0.000000000000000    
_CPPDONE=FALSE
_DKROLL_DONE=  0.000000000000000    
_FNUC_DONE=  0.000000000000000    
_FOCKDONE=  0.000000000000000    
_GRADONE=FALSE
_HESSDONE=FALSE
_INTDONE=TRUE
_SCFDONE=FALSE
_MODUL_BLOCK=FALSE
_MODUL_CUDA=FALSE
_MODUL_SLATER=FALSE
_MODUL_MRCC=TRUE
_MODUL_NBO6=FALSE
_MODUL_NECI=FALSE
_MODUL_AIMS=TRUE
_MODUL_GECCO=FALSE
_ISWINDOWS=FALSE
_MRCC_EXEC=/software/cinetica/mrcc/bin/dmrcc
_FITC_AO_SAVED=FALSE
_FITC_MO_SAVED=FALSE
_SHARED_FS=TRUE
_LSTYP=SEWARD
_INTYP=INTS
_GEOMTYP=ZMAT
_GRADTYP=ALASKA
_DIRECT=FALSE
_DKHO= -1.000000000000000    
_FNUC=  0.000000000000000    
_SYNCM=  0.000000000000000    
_BASIS=CC-PVDZ
_ZORIENT=  1.000000000000000    
!ZORIENT=  0.000000000000000    
_NELEC=  10.00000000000000    
!SPIN=  0.000000000000000    
_QSDSTEP=  0.000000000000000    
_QSDIRC=  0.000000000000000    
_PROGRAM=RS2
_CPUSTEP= 0.7999999999999996E-01
_SYSSTEP= 0.2000000000000002E-01
_WALLSTEP= 0.2100000000000000    
!DFMP2=  0.000000000000000    
!DFHFENERG=  0.000000000000000    
!SCSGRD=  0.000000000000000    
_CPUTOT= 0.6899999999999999    
_DMX= 0.8762893191655886E-05
_DMY=-0.2267990887892595E-05
_DMZ=-0.9298460579786560E-02
_EMP2= -40.19324491455507    
_ENERGR= -40.05919701407017    
_ENERGU= -40.18497904191730    
_ENERGY= -40.19324491455507    
_ENERGY_METHOD=RS2
_ENERGY_BASIS=cc-pVDZ
_GEOMETRY_METHOD=
_GEOMETRY_BASIS=
_ENERGY_AVRG= -40.05919701407016    
_ENUC=  10.86059552881603    
_GRADMETHOD=  9.000000000000000    
_NMRMETHOD=  0.000000000000000    
_NMRMAGNET=  0.000000000000000    
!GRID_FREEZE= -1.000000000000000    
!NEESE_INDEX=  0.000000000000000    
_ITERATIONS=  4.000000000000000    
_LASTNELEC=  2.000000000000000    
_LASTSPIN=  0.000000000000000    
_LASTSYM=  1.000000000000000    
_MPP_PROG=  1.000000000000000    
_MSNSTATES=  0.000000000000000    
_RS2PHASE=  0.000000000000000    
_IPROC_MPP=  0.000000000000000    
_IPROC_MPPX=  0.000000000000000    
_NPROC_MPP=  4.000000000000000    
_NPROC_MPPX=  4.000000000000000    
_NPROC_SMP=  1.000000000000000    
_NUMSTEP=  0.000000000000000    
_ORBITAL=  2140.200000000000    
_PI=  3.141592653589793    
!MCACT=  2.000000000000000    
!MCCLOSED=  4.000000000000000    
!MCFREEZE=  0.000000000000000    
!MCMS2=  0.000000000000000    
!MCNEL=  2.000000000000000    
!MCNSTSYM=  1.000000000000000    
!MCSTATE=  1.000000000000000    
!MCSYM=  1.000000000000000    
!MCWEIGHT=  1.000000000000000    
_SEIG_MIN= 0.1504039300922780E-01
_SEWPROP=TRUE
_STATUS=  1.000000000000000    
_SYSTOT= 0.3200000000000000    
_VERSION=  2022002.000000000    
_WALLTOT=  1.570000000000000    
_DATE=03-Jun-23
_LASTORB=MCSCF
_OUTPUT=/home/chimica2/cavallotti/qm/barrierless/vrc_autom/folders/ch3+h/dist_4.0/molpro.out
_PGROUP=C1
_TIME=09:00:24
_LIBMOL=/software/cinetica/molpro_2022.2/lib/
_VIGRDC=  0.000000000000000    
!VIBCNT=  0.000000000000000    
!RGHFCNT=  0.000000000000000    
!SURFREC=  0.000000000000000    
!XSURFREC=  0.000000000000000    
!XPOLYREC=  0.000000000000000    
!ROTREC=  0.000000000000000    
!POLYREC=  0.000000000000000    
!DIPREC=  0.000000000000000    
!DIP4DREC=  0.000000000000000    
!DIPROT=  0.000000000000000    
!DIP4DROT=  0.000000000000000    
!PTREC=  0.000000000000000    
!PT4DREC=  0.000000000000000    
!VSCFREC=  0.000000000000000    
!VCIREC=  0.000000000000000    
!PVCIREC=  0.000000000000000    
!VMP2REC=  0.000000000000000    
!VMCSCFREC=  0.000000000000000    
!VMRCIREC=  0.000000000000000    
!VIBSTATEREC=  0.000000000000000    
!VIBSTATECNT=  0.000000000000000    
!VIBINFO=  0.000000000000000    
!GAREC=  0.000000000000000    
!MCORB=  21402.00000000000    
!DEFCORE=  1.000000000000000    
!SCORE=  0.000000000000000    
!NEWMOL= -1.000000000000000    
!NEWSYM= -1.000000000000000    
_SLFILES=slscratch
_NGSSTO=  9.000000000000000    
_SIN=SIN
_COS=COS
_TAN=TAN
_ACOS=ACOS
_ASIN=ASIN
_ATAN=ATAN
_COSH=COSH
_SINH=SINH
_TANH=TANH
_ABS=ABS
_MOD=MOD
_ERF=ERF
_REFC=REFC
_ERFC=ERFC
_HYPOT=HYPOT
_J0=J0
_J1=J1
_JN=JN
_GAMMA=GAMMA
_LGAMMA=LGAMMA
_Y0=Y0
_Y1=Y1
_YN=YN
_EXP=EXP
_LOG=LOG
_LOG10=LOG10
_SQRT=SQRT
_INT=INT
_NINT=NINT
_MAX=MAX
_MIN=MIN
_COSMO=  0.000000000000000    
_COSMOIT=  0.000000000000000    
_COSMOES=  0.000000000000000    
_COSMOEDS=  0.000000000000000    
_COSMOEC=  0.000000000000000    
_COSMOEDCORR=  0.000000000000000    
_FEPSI=  1.000000000000000    
_SL_IsMM=  0.000000000000000    
_SL_NSYM=  1.000000000000000    
_SL_System_BitSw=  0.000000000000000    
_SL_Unique_atoms=  0.000000000000000    
_SL_GRAD=  0.000000000000000    
_SL_MAXUPD_Hess=  5.000000000000000    
_SL_N_PRINT_COD=  5.000000000000000    
_SL_PRINT_CODES=  0.000000000000000    
_SL_BasType=  0.000000000000000    
_SL_Energy_Pred=  0.000000000000000    
_SL_New_Coords=  0.000000000000000    
_SL_Total_Nuclea=  0.000000000000000    
_SL_Highest_Mltp=  0.000000000000000    
_SL_Ref_Geom=  0.000000000000000    
_SL_Symmetry_ope=  1.000000000000000    
_SL_agrad=  0.000000000000000    
_SL_GrdMax=  0.000000000000000    
_SL_GrdNorm=  0.000000000000000    
_SL_GrdRMS=  0.000000000000000    
_SL_Hss_Q=  0.000000000000000    
_SL_Hss_X=  0.000000000000000    
_SL_BMxOld=  0.000000000000000    
_SL_KtB=  0.000000000000000    
_SL_TROld=  0.000000000000000    
_SL_No_of_Intern=  0.000000000000000    
_SL_Hess=  0.000000000000000    
_SL_K=  0.000000000000000    
!LATTICE= -1.000000000000000    
!NEWLATTICE=  0.000000000000000    
!LATGRAD_VAR=FALSE
!SEW_LATTICE=  1.000000000000000    
!AIC_ONEEL=  0.000000000000000    
!LOCAL=  0.000000000000000    
!SAVEDOM= -1.000000000000000    
!RESTDOM= -1.000000000000000    
!SAVEDOM_HF= -1.000000000000000    
!RESTDOM_HF= -1.000000000000000    
!HESSREC=  0.000000000000000    
!FREQREC=  0.000000000000000    
!NMODREC=  0.000000000000000    
!GTASKS=  0.000000000000000    
!HTASKS=  0.000000000000000    
!SAVEDOM_EOM= -1.000000000000000    
!RESTDOM_EOM= -1.000000000000000    
!GRADSTATE= -1.000000000000000    
!DEBUG=  0.000000000000000    
!CFIT_CPHF=  0.000000000000000    
!RDOMAUX_CPHF=  0.000000000000000    
!THRAO_CPHF= 0.1000000000000000E-11
!THRMO_CPHF= 0.1000000000000000E-11
!THROV_CPHF= 0.1000000000000000E-11
!THRSW_CPHF= 0.1000000000000000E-11
!THRPROD_CPHF= 0.1000000000000000E-11
!THRAOPR_CPHF= 0.1000000000000000E-11
!CFIT_SCFGRD=  0.000000000000000    
!RDOMAUX_SCFGRD=  0.000000000000000    
!THRAO_SCFGRD= 0.1000000000000000E-11
!THRMO_SCFGRD= 0.1000000000000000E-11
!THROV_SCFGRD= 0.1000000000000000E-11
!THRSW_SCFGRD= 0.1000000000000000E-11
!THRPROD_SCFGRD= 0.1000000000000000E-11
!THRAOPR_SCFGRD= 0.1000000000000000E-11
!LOCFIT_SCF=  0.000000000000000    
!LOCFIT_MP2=  0.000000000000000    
_RIDOM=  0.000000000000000    
!CC2_METHOD=  0.000000000000000    
_BASIS2006=FALSE
_SVDDEL= -1.000000000000000    
_SVDDELA= -1.000000000000000    
_SVDDELP= -1.000000000000000    
_SVDDELF= -1.000000000000000    
_SVDDELS= -1.000000000000000    
_SVDDEL_ABS= -1.000000000000000    
_SVDDELA_ABS= -1.000000000000000    
_SVDDELP_ABS= -1.000000000000000    
_SVDDELF_ABS= -1.000000000000000    
_SVDDELS_ABS= -1.000000000000000    
_MAXBASIS=  0.000000000000000    
!OPT_CONICAL=  0.000000000000000    
!CLEARSP_JGRID=  0.000000000000000    
_GRDHYBR=  0.000000000000000    
_STATEGRAD=  1.000000000000000    
_4EXT_NDISKS=  1.000000000000000    
!EMBEDFLAG=  1.000000000000000    
!EMBED=FALSE
!EMBED_F12=FALSE
!EMBEDNUC=  0.000000000000000    
_EMBEDENERGY=  0.000000000000000    
!EMBED_DFC=FALSE
!NUM_VOIDS=  0.000000000000000    
_IBODY=  0.000000000000000    
_EMBE_CORR=  0.000000000000000    
!EMBED_PROJ=FALSE
!EMB_PROJ_ZMU=  1000000.000000000    
!CORRECTION_HF=  0.000000000000000    
!EMBED_AORB=  0.000000000000000    
!EMBED_NACORR=  0.000000000000000    
!EMBED_MP2=FALSE
!EMBED_TRUNC_PERTURBATION=FALSE
!EMBED_FROZEN=  0.000000000000000    
!EMBED_ACTIVE=  0.000000000000000    
_CHANGE_BASIS=FALSE
_RESTORE_BASIS=FALSE
_FIX_EMBED_GUESS=FALSE
_EMBED_SCF=FALSE
_HUZINAGA_T=FALSE
_HUZINAGA_F=FALSE
_HUZINAGA=FALSE
_HUZINAGA_CORRECT=FALSE
!FASTLATGRAD=  1.000000000000000    
!FASTVLAMBDA= -1.000000000000000    
!IFORCE= -1.000000000000000    
!USESYM= -1.000000000000000    
_SINDEX=  0.000000000000000    
_AVDOM_OSV=  0.000000000000000    
_AVDOM_PNO=  0.000000000000000    
_AVDOM_PAO=  0.000000000000000    
_AVDOM_LMO=  0.000000000000000    
_CC2OSV_FLAG=  0.000000000000000    
_EOMCCSD_CONV=FALSE
_TMADC2_FLAG=FALSE
_PROPADC2_FLAG=FALSE
_LEN_VirQ=  0.000000000000000    
_GRDCC2LR_FLAG=FALSE
_GRDADC2_FLAG=FALSE
_DMX_CC=-0.2132733801584852E-02
_DMY_CC=-0.1748981214448220E-02
_DMZ_CC=  3.795387957670744    
_DMX_NUC=-0.1567638580000072E-02
_DMY_NUC=-0.1455680533999615E-02
_DMZ_NUC=  2.811994647429001    
_RO_VGLOBAL=  0.000000000000000    
_OPT=FALSE
_FREQ=FALSE
_HESS=FALSE
_CMRCC_callName=EMPTY
_CMRCC_callCount=  0.000000000000000    
_GECCO_CIROOT=  1.000000000000000    
_SYM_CATION=  0.000000000000000    
_MON_A=FALSE
_MON_B=FALSE
R1=  1.078300000000000    
R2=  1.078300000000000    
R3=  1.078300000000000    
A2=  120.0016000000000    
A3=  120.0046000000000    
D3=  179.8056000000000    
DH1=  89.65910000000000    
ANG1=  89.73139999999999    
BB=  4.000000000000000    
GX1= 0.2649656620730335E-03
GY1= 0.2460422715476395E-03
GZ1=-0.4752894148486748    
GX2= 0.6463138501626296E-02
GY2=  2.037900974867774    
GZ2=-0.4647375519477425    
GX3=  1.761784306031849    
GY3= -1.024057831748775    
GZ3=-0.4690788865980388    
GX4= -1.767428688279425    
GY4= -1.013327046904873    
GZ4=-0.4860654161147509    
GX5=-0.3976188806741061E-02
GY5=-0.3448030380404886E-02
GZ5=  7.083612991183969    
CBSEN= -40.19324491455507    
[Atoms] Angs
C     1    6         0.0001402138        0.0001302000       -0.2515123269
H     2    1         0.0034201456        1.0784107540       -0.2459285215
H     3    1         0.9322961053       -0.5419080672       -0.2482258569
H     4    1        -0.9352829837       -0.5362295804       -0.2572147412
H     5    1        -0.0021041085       -0.0018246191        3.7484865658
[GTO]
   1 0
 s    9  1.00
  0.6665000000D+04  0.6920001793D-03
  0.1000000000D+04  0.5329001381D-02
  0.2280000000D+03  0.2707700701D-01
  0.6471000000D+02  0.1017180264D+00
  0.2106000000D+02  0.2747400712D+00
  0.7495000000D+01  0.4485641162D+00
  0.2797000000D+01  0.2850740738D+00
  0.5215000000D+00  0.1520400394D-01
  0.1596000000D+00 -0.3191000827D-02
 s    9  1.00
  0.6665000000D+04 -0.1460000642D-03
  0.1000000000D+04 -0.1154000508D-02
  0.2280000000D+03 -0.5725002519D-02
  0.6471000000D+02 -0.2331201026D-01
  0.2106000000D+02 -0.6395502813D-01
  0.7495000000D+01 -0.1499810660D+00
  0.2797000000D+01 -0.1272620560D+00
  0.5215000000D+00  0.5445292395D+00
  0.1596000000D+00  0.5804962554D+00
 s    9  1.00
  0.6665000000D+04  0.0000000000D+00
  0.1000000000D+04  0.0000000000D+00
  0.2280000000D+03  0.0000000000D+00
  0.6471000000D+02  0.0000000000D+00
  0.2106000000D+02  0.0000000000D+00
  0.7495000000D+01  0.0000000000D+00
  0.2797000000D+01  0.0000000000D+00
  0.5215000000D+00  0.0000000000D+00
  0.1596000000D+00  0.1000000000D+01
 p    4  1.00
  0.9439000000D+01  0.3810902127D-01
  0.2002000000D+01  0.2094801169D+00
  0.5456000000D+00  0.5085572839D+00
  0.1517000000D+00  0.4688422617D+00
 p    4  1.00
  0.9439000000D+01  0.0000000000D+00
  0.2002000000D+01  0.0000000000D+00
  0.5456000000D+00  0.0000000000D+00
  0.1517000000D+00  0.1000000000D+01
 d    1  1.00
  0.5500000000D+00  0.1000000000D+01
  
   2 0
 s    4  1.00
  0.1301000000D+02  0.1968498999D-01
  0.1962000000D+01  0.1379769298D+00
  0.4446000000D+00  0.4781477569D+00
  0.1220000000D+00  0.5012397451D+00
 s    4  1.00
  0.1301000000D+02  0.0000000000D+00
  0.1962000000D+01  0.0000000000D+00
  0.4446000000D+00  0.0000000000D+00
  0.1220000000D+00  0.1000000000D+01
 p    1  1.00
  0.7270000000D+00  0.1000000000D+01
  
   3 0
 s    4  1.00
  0.1301000000D+02  0.1968498999D-01
  0.1962000000D+01  0.1379769298D+00
  0.4446000000D+00  0.4781477569D+00
  0.1220000000D+00  0.5012397451D+00
 s    4  1.00
  0.1301000000D+02  0.0000000000D+00
  0.1962000000D+01  0.0000000000D+00
  0.4446000000D+00  0.0000000000D+00
  0.1220000000D+00  0.1000000000D+01
 p    1  1.00
  0.7270000000D+00  0.1000000000D+01
  
   4 0
 s    4  1.00
  0.1301000000D+02  0.1968498999D-01
  0.1962000000D+01  0.1379769298D+00
  0.4446000000D+00  0.4781477569D+00
  0.1220000000D+00  0.5012397451D+00
 s    4  1.00
  0.1301000000D+02  0.0000000000D+00
  0.1962000000D+01  0.0000000000D+00
  0.4446000000D+00  0.0000000000D+00
  0.1220000000D+00  0.1000000000D+01
 p    1  1.00
  0.7270000000D+00  0.1000000000D+01
  
   5 0
 s    4  1.00
  0.1301000000D+02  0.1968498999D-01
  0.1962000000D+01  0.1379769298D+00
  0.4446000000D+00  0.4781477569D+00
  0.1220000000D+00  0.5012397451D+00
 s    4  1.00
  0.1301000000D+02  0.0000000000D+00
  0.1962000000D+01  0.0000000000D+00
  0.4446000000D+00  0.0000000000D+00
  0.1220000000D+00  0.1000000000D+01
 p    1  1.00
  0.7270000000D+00  0.1000000000D+01


[MO]
 Sym=      1.1
 Ene=     -11.2293
 Spin= Alpha
 Occup=    2.000000
1 1.00137752327291
2 0.007996750939178
3 -0.007998011901546
4 -0.000000063839526
5 -0.000000079708797
6 0.000010660038538
7 0.000000023676938
8 0.000000182729089
9 -0.000009572372738
10 0.000362965222088
11 0.000363316958467
12 -0.000726282180554
13 0.000000036519859
14 0.000006064229125
15 0.000005259789703
16 -0.000697191165303
17 0.001603127118730
18 0.000001560001274
19 0.000521135666433
20 0.000003351595879
21 -0.000696823777633
22 0.001603012743207
23 0.000450461513471
24 -0.000261874647799
25 0.000002241422731
26 -0.000696969605975
27 0.001603111259691
28 -0.000452082946189
29 -0.000259126107792
30 -0.000002101892253
31 -0.000046986188933
32 0.000062750550549
33 -0.000000011467536
34 -0.000000009936086
35 0.000000263028292
 Sym=      2.1
 Ene=      -0.8990
 Spin= Alpha
 Occup=    2.000000
1 -0.028220212226724
2 0.75486197820867
3 -0.14578875543197
4 0.000000552234694
5 -0.000013717345943
6 0.000389240918060
7 -0.000001556836943
8 0.000007649888251
9 -0.000050942255111
10 0.001648457074537
11 0.001648185054439
12 -0.003296642128977
13 -0.000000194920149
14 0.000027473978119
15 0.000023819527377
16 0.35078333399843
17 -0.14531008933158
18 -0.000086519511706
19 -0.028491141999576
20 -0.000145937002939
21 0.35079170243111
22 -0.14530969710045
23 -0.024630218234821
24 0.014321519783911
25 -0.000085222381551
26 0.35079092955307
27 -0.14531023779701
28 0.024716736371268
29 0.014171419787994
30 0.000152353950120
31 0.000695516837652
32 0.000899909316504
33 0.000000039262437
34 0.000000033969477
35 -0.000159682596085
 Sym=      3.1
 Ene=      -0.5705
 Spin= Alpha
 Occup=    2.000000
1 -0.000000354422849
2 0.000017599961901
3 0.000003061326254
4 0.091510952391440
5 0.63272452310448
6 0.003087924052501
7 -0.017251816352224
8 -0.11928052330947
9 -0.000582293157291
10 -0.020458972585015
11 0.020458459023390
12 0.000000513561624
13 -0.003197787763404
14 -0.000121091660056
15 0.000126749885236
16 0.63186730182520
17 -0.17905407255903
18 0.001709098555410
19 -0.022291796539523
20 -0.000134827958935
21 -0.23848371843564
22 0.067580436679728
23 0.013183591466943
24 0.005939233867319
25 0.000107252797452
26 -0.39338900861890
27 0.11147578833525
28 -0.017003239014643
29 0.001759673190488
30 -0.000043768732732
31 0.000004408770844
32 0.000008749514306
33 0.000010396638482
34 0.000073122721996
35 -0.000002349757940
 Sym=      4.1
 Ene=      -0.5704
 Spin= Alpha
 Occup=    2.000000
1 0.000000109475441
2 -0.000006374607829
3 -0.000000630221834
4 0.63272643954492
5 -0.091524675837227
6 0.002669415920450
7 -0.11926764478227
8 0.017251940806810
9 -0.000503320450860
10 0.002769401456632
11 -0.002768881353976
12 -0.000000520102657
13 -0.023628492512995
14 -0.000040066810996
15 -0.000133650022404
16 -0.089432477805907
17 0.025341144423514
18 0.012564849184265
19 0.003115712833859
20 0.000080715782882
21 0.59192856820915
22 -0.16772726032764
23 -0.015665199846553
24 0.014591478813835
25 -0.000061170699480
26 -0.50249353611300
27 0.14238395556088
28 -0.011485903212936
29 -0.015597250890756
30 -0.000081192008587
31 0.000003828206979
32 0.000007394095852
33 0.000072912035119
34 -0.000010726017975
35 -0.000002021338471
 Sym=      5.1
 Ene=      -0.1570
 Spin= Alpha
 Occup=    1.072217
1 0.000068204258129
2 -0.004949473819296
3 -0.002318464827689
4 -0.003036362695815
5 -0.002632824548530
6 0.62224057572792
7 -0.000355315927969
8 -0.000307954147754
9 0.073709766285674
10 -0.000242133105063
11 -0.000245294691498
12 0.000487427796561
13 0.000002058101399
14 -0.000002457469657
15 -0.000002978489383
16 -0.001892310262091
17 0.002637643050737
18 -0.000066449884870
19 -0.000104923400994
20 0.013715261588271
21 -0.001878024526569
22 0.002628223280312
23 -0.000107539393864
24 -0.000033515967147
25 0.013713847186321
26 -0.001822912100760
27 0.002591308453765
28 -0.000024028867633
29 -0.000033255830830
30 0.013711033454505
31 0.69128628346973
32 0.015472215055904
33 0.000001141972647
34 0.000000986181208
35 -0.000358574024368
 Sym=      6.1
 Ene=      -0.1310
 Spin= Alpha
 Occup=    0.927783
1 0.000285103114876
2 -0.002022580602208
3 -0.002128779239684
4 0.003074573467103
5 0.002665765975516
6 -0.64326097875804
7 0.000346429409520
8 0.000300494665771
9 -0.072497110777351
10 -0.000240092018929
11 -0.000243323090658
12 0.000483415109586
13 0.000002084175413
14 -0.000003723113609
15 -0.000002378994355
16 -0.002209852860189
17 0.002049526420207
18 0.000067338736284
19 0.000040594096220
20 -0.013966546801590
21 -0.002196272500581
22 0.002041364721811
23 0.000051832956948
24 0.000067472135297
25 -0.013966543817667
26 -0.002144213228802
27 0.002009351513802
28 0.000083507937360
29 0.000067668281644
30 -0.013969256907819
31 0.72356446574483
32 -0.016067704854715
33 0.000000918288519
34 0.000000788830058
35 0.001013442945030
 Sym=      7.1
 Ene=       0.2021
 Spin= Alpha
 Occup=    0.000000
1 0.080333186175471
2 -0.21786943188238
3 -2.08420409015596
4 0.000011941059959
5 0.000011781271345
6 -0.001336902310024
7 0.000022839169156
8 0.000057853711635
9 -0.002123316905751
10 -0.014210035171475
11 -0.014215110982954
12 0.028425146154429
13 -0.000000442121115
14 -0.000237133740796
15 -0.000205625157330
16 0.049444302762799
17 1.02264383589245
18 -0.000056265917662
19 -0.018722502763760
20 -0.000110324471994
21 0.049425862486782
22 1.02265949080699
23 -0.016185560928358
24 0.009409439815842
25 -0.000070554089344
26 0.049430058089958
27 1.02272416599444
28 0.016244125774686
29 0.009311110991206
30 0.000085093799577
31 -0.066406613466940
32 0.051115415929536
33 0.000009556267451
34 0.000008281595522
35 -0.002736778992706
 Sym=      8.1
 Ene=       0.2716
 Spin= Alpha
 Occup=    0.000000
1 -0.000002772129967
2 -0.000019297212048
3 0.000037952110593
4 -0.077576493980822
5 -0.43539182128265
6 -0.002203383468484
7 -0.22003643922266
8 -1.23496963352786
9 -0.006232880643964
10 0.021435476518145
11 -0.021432263568942
12 -0.000003212949203
13 0.004178221451888
14 0.000123938618426
15 -0.000156228046520
16 0.018851722508718
17 2.16458701076038
18 -0.000701849442138
19 -0.027560353698233
20 -0.000139546706820
21 -0.006553471282513
22 -0.75417819047034
23 0.006613302787287
24 -0.007733152030338
25 0.000006566277155
26 -0.012268948616580
27 -1.41047621300768
28 -0.014216135798104
29 -0.011315588835472
30 -0.000102688490277
31 -0.000577375926248
32 0.000439177340693
33 0.000154609394163
34 0.000935329358856
35 -0.000028828523591
 Sym=      9.1
 Ene=       0.2716
 Spin= Alpha
 Occup=    0.000000
1 -0.000000145128697
2 0.000000836410360
3 -0.000009873172644
4 -0.43540252941806
5 0.077586042589828
6 -0.001782423066093
7 -1.23488323927760
8 0.22005442228625
9 -0.005041357099060
10 -0.003618761869005
11 0.003616336778685
12 0.000002425090320
13 0.024751196353310
14 0.000010520020006
15 0.000149866117809
16 -0.003313088929051
17 -0.37889256056537
18 -0.003516259157571
19 0.004835381961008
20 0.000006728549196
21 0.018000753220386
22 2.06400153314638
23 -0.023339507697375
24 0.012150634787301
25 -0.000081643742115
26 -0.014712841750306
27 -1.68506844422138
28 -0.019758139520388
29 -0.008679753559573
30 -0.000115744401478
31 -0.000468660457866
32 0.000357285244358
33 0.000921923722903
34 -0.000176326490374
35 -0.000023246130544
 Sym=     10.1
 Ene=       0.6160
 Spin= Alpha
 Occup=    0.000000
1 -0.000933461184257
2 -0.001869807197412
3 0.007884287388000
4 -0.45079096585742
5 0.023842812253224
6 -0.013089550992315
7 1.67973833297158
8 -0.088665522679955
9 0.020039768995829
10 -0.005180916654374
11 0.004040568580697
12 0.001140348073677
13 0.12207632956214
14 0.000282041018139
15 0.000614712069272
16 0.060293896044264
17 -0.018766002902023
18 0.070310376295927
19 -0.000424506244683
20 -0.000222243150972
21 -1.18461031954739
22 0.37801247805868
23 0.011472645950918
24 0.030490183318604
25 -0.000430283192588
26 1.10782103126712
27 -0.35251916600579
28 0.015379033902330
29 -0.035184670846194
30 -0.000590117988684
31 -0.044283610479194
32 0.048578304623716
33 0.000970214339612
34 -0.000049070153520
35 -0.000127571090867
 Sym=     11.1
 Ene=       0.6160
 Spin= Alpha
 Occup=    0.000000
1 -0.000976931145686
2 -0.001973404227416
3 0.008109288620580
4 -0.023480621329761
5 -0.45082764830942
6 -0.013096970656402
7 0.087689448393289
8 1.68007666891839
9 0.019851653522729
10 0.10513302196018
11 -0.10632392699401
12 0.001190905033823
13 0.005260565577051
14 0.000592531951100
15 -0.000687787546632
16 -1.32936623674082
17 0.42394346703460
18 0.003445605122414
19 -0.006038580504069
20 -0.000631813850445
21 0.59963262242409
22 -0.19036196773088
23 0.033225103210329
24 0.053135683179341
25 -0.000158718637013
26 0.71236893649200
27 -0.22618508792975
28 -0.031587267042126
29 0.050104646750461
30 -0.000480942081630
31 -0.044597566376676
32 0.048924387204581
33 0.000052607562784
34 0.000966833938220
35 -0.000127529064743
 Sym=     12.1
 Ene=       0.6224
 Spin= Alpha
 Occup=    0.000000
1 -0.042548836987577
2 -0.084601718779454
3 0.35260302239315
4 0.013713199589555
5 0.012354454648139
6 -0.50795216237350
7 -0.043335340309872
8 -0.039328995642223
9 0.57044833483085
10 -0.029082155955356
11 -0.024321889040416
12 0.053404044995772
13 -0.002974677786778
14 -0.000398434092754
15 -0.000326378904233
16 -0.22711218847331
17 0.10078285898415
18 -0.001681169909107
19 -0.022699422411261
20 -0.025741031169824
21 -0.24326740205760
22 0.10620674424301
23 -0.020763003481567
24 0.009659131059734
25 -0.025717144406355
26 -0.29860472085006
27 0.12519060437294
28 0.020343388993873
29 0.011116547373179
30 -0.025585635783118
31 -1.90094218845341
32 2.09026633312005
33 -0.000024383129186
34 -0.000022043678554
35 -0.003854153081194
 Sym=     13.1
 Ene=       0.7256
 Spin= Alpha
 Occup=    0.000000
1 -0.10056135504453
2 -0.11779795337642
3 0.56626646478837
4 -0.003777797208064
5 -0.003145525952189
6 0.77416614127154
7 0.004633705827338
8 0.003512478714367
9 -0.93075835066300
10 -0.11651914820921
11 -0.11653341454115
12 0.23305256275036
13 0.000008443614279
14 -0.001948982848573
15 -0.001689384478216
16 -0.97090847206670
17 0.69651257359407
18 -0.000449867562178
19 -0.10269512946702
20 0.029351927398165
21 -0.97123233891904
22 0.69637246424903
23 -0.088804469926895
24 0.051417284700415
25 0.029571207339370
26 -0.97110944080264
27 0.69639618744746
28 0.088835909139044
29 0.050875138688235
30 0.030426854621804
31 0.026507461480607
32 -0.025188925540534
33 0.000004916619025
34 0.000004130382416
35 0.002638993787842
 Sym=     14.1
 Ene=       0.7538
 Spin= Alpha
 Occup=    0.000000
1 0.043819663224648
2 0.020101243582272
3 -0.18602055536144
4 -0.005002456465863
5 -0.004404446679260
6 1.15944601360985
7 0.005525277890232
8 0.005039620350270
9 -1.41532963235514
10 0.067001123662601
11 0.067136782283112
12 -0.13413790594571
13 -0.000082529997153
14 0.001171172964931
15 0.001016614562709
16 0.53740366234362
17 -0.42488918499552
18 -0.000079461053477
19 0.059008170741106
20 0.040011412533056
21 0.53720556772779
22 -0.42459653858296
23 0.050934765629775
24 -0.029983119424292
25 0.039872633106112
26 0.53584746742820
27 -0.42386903528753
28 -0.051612045769350
29 -0.029659021294148
30 0.039326568882035
31 -0.91998163538556
32 1.05512522925999
33 -0.000007590306928
34 -0.000006572018787
35 0.013208349487645
 Sym=     15.1
 Ene=       0.9046
 Spin= Alpha
 Occup=    0.000000
1 -0.000001214863789
2 -0.000023739483291
3 0.000051761007501
4 -1.23104424052909
5 0.16977314149521
6 -0.005120573603821
7 2.28496965996229
8 -0.31512014947582
9 0.009566881305089
10 0.038024220292317
11 -0.037992792813856
12 -0.000031427478460
13 -0.34124919210199
14 -0.000646239193629
15 -0.001908589675718
16 -0.079185036061005
17 0.26865198569191
18 -0.070832883083613
19 -0.038604130657305
20 -0.000542345623765
21 0.54886016719955
22 -1.86085094464412
23 0.21882664498662
24 -0.15860721186935
25 0.000668144335528
26 -0.46946362159004
27 1.59196493357541
28 0.17786363210952
29 0.15227217589659
30 0.001260526699130
31 -0.000420352653246
32 0.000527826289882
33 -0.001449211140216
34 0.000228894439493
35 0.000033936676663
 Sym=     16.1
 Ene=       0.9046
 Spin= Alpha
 Occup=    0.000000
1 -0.000014221954983
2 -0.000069508076662
3 0.000112070148140
4 -0.16974868688093
5 -1.23104075051778
6 -0.005848162065952
7 0.31508208714116
8 2.28502067122292
9 0.010924600059909
10 -0.29550201589513
11 0.29550079280522
12 0.000001223089916
13 -0.043890614986928
14 -0.001751549747191
15 0.001785403110863
16 0.58798090874838
17 -1.99355222792291
18 -0.008655748649213
19 0.28809063493387
20 0.001459080416991
21 -0.22533587602543
22 0.76399940453144
23 -0.12862663935100
24 -0.001580125424784
25 -0.000739462034061
26 -0.36262050472520
27 1.22946427320330
28 0.18221798833242
29 0.039370183177338
30 0.000862895789248
31 -0.000465301558430
32 0.000585892553759
33 -0.000175733146759
34 -0.001484980966701
35 0.000038763249155
 Sym=     17.1
 Ene=       1.0721
 Spin= Alpha
 Occup=    0.000000
1 -0.79616466972956
2 -3.62684540682557
3 6.14352400319761
4 0.000030901239233
5 0.000055018506706
6 -0.007079111528572
7 -0.000033628566071
8 -0.000172327468520
9 0.010340811316054
10 0.025431059790670
11 0.025471856360873
12 -0.050902916151543
13 0.000016601132375
14 0.000415765914684
15 0.000360783884864
16 -0.14968405557470
17 -0.88865536225046
18 0.000582162118307
19 0.19094423696647
20 0.001378727037218
21 -0.14969961991477
22 -0.88872366164664
23 0.16506546089290
24 -0.095975195532873
25 0.000974509500833
26 -0.14966437552600
27 -0.88878699593505
28 -0.16565017850860
29 -0.094974757440648
30 -0.000606791064695
31 0.048210060275776
32 -0.053387717328665
33 -0.000043359530089
34 -0.000037605579473
35 0.003281633985438
 Sym=     18.1
 Ene=       1.2185
 Spin= Alpha
 Occup=    0.000000
1 -0.000010210469154
2 -0.000043864122187
3 0.000063002133094
4 -0.000036407958884
5 -0.000252976581674
6 -0.000035840895329
7 -0.000064980907946
8 -0.000440152499114
9 0.000052096089296
10 0.000154085572924
11 -0.005404359131707
12 0.005250273558783
13 -0.003222114108588
14 0.090250542942786
15 0.61922934677212
16 0.000710325346857
17 -0.000333294068437
18 -0.001839384157165
19 -0.001931900979596
20 0.40904138523613
21 -0.000291863048461
22 0.000141139867907
23 0.001262318112017
24 0.001370084065611
25 -0.15398286604103
26 -0.000470739016157
27 0.000224324589803
28 0.000735843476732
29 0.001651659001409
30 -0.25506541279765
31 0.000358568800519
32 -0.000425102194122
33 0.000020915031813
34 0.000144763944603
35 -0.000005062153414
 Sym=     19.1
 Ene=       1.2185
 Spin= Alpha
 Occup=    0.000000
1 -0.000008889230782
2 -0.000038200031186
3 0.000054969952822
4 -0.000252450965576
5 0.000037319022892
6 -0.000041752451785
7 -0.000440663686566
8 0.000063410870799
9 0.000045326161310
10 -0.005304015994398
11 0.000775181114498
12 0.004528834879900
13 -0.001101957710599
14 0.61925341365055
15 -0.090280258905557
16 -0.000119283678773
17 0.000059094490900
18 0.001229306410671
19 0.000273493438781
20 -0.058344921180875
21 0.000666686622591
22 -0.000312899969443
23 -0.001849413080655
24 -0.001192325047449
25 0.38342817881654
26 -0.000592467055256
27 0.000281144245180
28 0.001709438383867
29 0.000759807852463
30 -0.32505927527547
31 0.000307848271825
32 -0.000364916774965
33 0.000144546761475
34 -0.000021257254785
35 -0.000004167504743
 Sym=     20.1
 Ene=       1.5110
 Spin= Alpha
 Occup=    0.000000
1 -0.000055117535180
2 -0.000246028428061
3 0.000428270854177
4 -0.001658261335383
5 -0.000769744598434
6 -0.000016522163240