
 Working directory              : /scratch/cc//molpro.ZtHXa1lLpS/
 Global scratch directory       : /scratch/cc//molpro.ZtHXa1lLpS/
 Wavefunction directory         : /home/chimica2/cavallotti/wfu/
 Main file repository           : /scratch/cc//molpro.ZtHXa1lLpS/

 id        : polimi

 Nodes     nprocs
 node-6-11    1
 Distribution of processes:   nprocs(total)=    2   nprocs(compute)=    1   nprocs(helper)=    1
 GA implementation: MPI file
 GA implementation (serial work in mppx): MPI file

 Using customized tuning parameters: mindgm=1; mindgv=20; mindgc=4; mindgr=1; noblas=0; minvec=7
 default implementation of scratch files=df  


 Variables initialized (1009), CPU time= 0.00 sec
  memory,         400 ,m
 
 symmetry, nosym; orient, noorient
 angstrom
 geomtyp=xyz
 geometry={
 5
 rotational dynamics
 C, -0.0718313, -0.230155, 0.0638752
 H, 0.32052, -0.709387, 0.946435
 H, -0.549407, -0.819861, -0.702079
 H, 0.0105359, 0.838702, -0.0513697
 H, 1.07363, 3.43096, -0.953537
 }
 
  basis=cc-pvdz
  {multi;closed, 4;occ, 6;wf, 10,1,0,;state,1;maxiter,40}
  if (iterations.ge.0) then
     {rs2,shift=0.2;orbital,IGNORE_ERROR;state,1}
     molpro_energy = energy +   40.192865169999997
  else
     molpro_energy = 10.0
  endif
 Commands initialized (810), CPU time= 0.01 sec, 661 directives.
 Default parameters read. Elapsed time= 0.16 sec

 Checking input...
 Passed
1


                                         ***  PROGRAM SYSTEM MOLPRO  ***
                                       Copyright, TTI GmbH Stuttgart, 2015
                                    Version 2021.2 linked Jun  2 2021 16:00:59


 **********************************************************************************************************************************
 LABEL *                                                                                 
  64 bit serial version                                                                  DATE: 03-Jun-23          TIME: 09:16:10  
 **********************************************************************************************************************************

 SHA1:             1987c3f1b0c3ae76932bc24993909f2d7ae6b1f1
 **********************************************************************************************************************************

 Memory per process:       400 MW
 Total memory per node:    400 MW

 GA preallocation disabled
 GA check disabled

 Variable memory set to 400.0 MW

 SETTING GEOMTYP        =    XYZ
 ZSYMEL=NOSYM
 ZUNIT=ANG

 SETTING BASIS          =    CC-PVDZ


 Recomputing integrals since basis changed


 Using spherical harmonics

 Library entry C      S cc-pVDZ              selected for orbital group  1
 Library entry C      P cc-pVDZ              selected for orbital group  1
 Library entry C      D cc-pVDZ              selected for orbital group  1
 Library entry H      S cc-pVDZ              selected for orbital group  2
 Library entry H      P cc-pVDZ              selected for orbital group  2


 PROGRAM * SEWARD (Integral evaluation for generally contracted gaussian basis sets)     Author: Roland Lindh, 1990

 Geometry written to block  1 of record 700


 Point group  C1  



 ATOMIC COORDINATES

 NR  ATOM    CHARGE       X              Y              Z

   1  C       6.00   -0.135741484   -0.434929916    0.120706634
   2  H       1.00    0.605695017   -1.340547146    1.788502945
   3  H       1.00   -1.038228761   -1.549312750   -1.326737028
   4  H       1.00    0.019909965    1.584917080   -0.097074664
   5  H       1.00    2.028866659    6.483574745   -1.801923780

 Bond lengths in Bohr (Angstrom)

 1-2  2.037502193  1-3  2.037504734  1-4  2.037507781
     ( 1.078199728)     ( 1.078201072)     ( 1.078202685)

 Bond angles

  2-1-3  119.97233366   2-1-4  120.02078562   3-1-4  120.00660176

 NUCLEAR CHARGE:                   10
 NUMBER OF PRIMITIVE AOS:          55
 NUMBER OF SYMMETRY AOS:           54
 NUMBER OF CONTRACTIONS:           34   (   34A   )
 NUMBER OF INNER CORE ORBITALS:     0   (    0A   )
 NUMBER OF OUTER CORE ORBITALS:     1   (    1A   )
 NUMBER OF VALENCE ORBITALS:        8   (    8A   )


 NUCLEAR REPULSION ENERGY   10.89494611


 Eigenvalues of metric

         1 0.147E-01 0.341E-01 0.352E-01 0.420E-01 0.503E-01 0.542E-01 0.934E-01 0.123E+00


 Contracted 2-electron integrals neglected if value below      1.0D-11
 AO integral compression algorithm  1   Integral accuracy      1.0D-11

     1.049 MB (compressed) written to integral file ( 66.7%)


 NUMBER OF SORTED TWO-ELECTRON INTEGRALS:     177310.     BUFFER LENGTH:  32768
 NUMBER OF SEGMENTS:   1  SEGMENT LENGTH:     177310      RECORD LENGTH: 524288

 Memory used in sort:       0.73 MW

 SORT1 READ      209120. AND WROTE      161280. INTEGRALS IN      1 RECORDS. CPU TIME:     0.01 SEC, REAL TIME:     0.01 SEC
 SORT2 READ      161280. AND WROTE      177310. INTEGRALS IN      4 RECORDS. CPU TIME:     0.01 SEC, REAL TIME:     0.03 SEC

 FILE SIZES:   FILE 1:    31.1 MBYTE,  FILE 4:     4.2 MBYTE,   TOTAL:     35.3 MBYTE

 OPERATOR DM      FOR CENTER  0  COORDINATES:    0.000000    0.000000    0.000000


 **********************************************************************************************************************************
 DATASETS  * FILE   NREC   LENGTH (MB)   RECORD NAMES
              1      19       29.39       500      610      700      900      950      970     1000      129      960     1100   
                                          VAR    BASINP    GEOM    SYMINP    ZMAT    AOBASIS   BASIS     P2S    ABASIS      S 
                                         1400     1410     1200     1210     1080     1600     1650     1300     1700   
                                           T        V       H0       H01     AOSYM     SMH    MOLCAS    ERIS     OPER   

 PROGRAMS   *        TOTAL       INT
 CPU TIMES  *         0.40      0.24
 REAL TIME  *         0.83 SEC
 DISK USED  *        34.01 MB
 **********************************************************************************************************************************

 PROGRAM * MULTI (Direct Multiconfiguration SCF)       Authors: P.J. Knowles, H.-J. Werner (1984)
                                                                D.A. Kreplin, P.J. Knowles, H.-J. Werner (2019)

 Number of closed-shell orbitals:   4 (   4 )
 Number of active  orbitals:        2 (   2 )
 Number of external orbitals:      28 (  28 )

 State symmetry 1

 Number of active electrons:   2    Spin symmetry=Singlet   Space symmetry=1
 Number of states:             1
 Number of CSFs:               3   (4 determinants, 4 intermediate states)

 Orbital guess generated from atomic densities. Full valence occupancy:    9

 Wavefunction dump at record             2140.2

 Convergence thresholds  0.10E-04 (gradient)  0.10E-05 (energy)
 
 Number of orbital rotations:  176  ( 8 closed/active, 112 closed/virtual, 0 active/active, 56 active/virtual )
 Total number of variables:    180
 
  Second-order MCSCF: L-BFGS accelerated
 
 ITER  MIC  NCI  NEG     ENERGY(VAR)    ENERGY(PROJ) ENERGY CHANGE       GRAD(0)  GRAD(ORB)   GRAD(CI)      STEP      TIME
   1    5    4    0    -40.04232547     -40.05880166   -0.01647619    0.14682244 0.00022477 0.00000000  0.14E+00      0.08
   2    6    5    0    -40.05876897     -40.05877129   -0.00000231    0.00212697 0.00000001 0.00000000  0.12E-02      0.18
   3    3    3    0    -40.05877129     -40.05877129   -0.00000000    0.00000087 0.00000000 0.00000000  0.50E-06      0.24

 CONVERGENCE REACHED!  Final gradient:    0.00000000 ( 0.27E-09)
                       Final energy:    -40.05877129
 
 First order charge density matrix for state 1.1 saved on record 2140.2 (density set 1)
 
 Results for state 1.1
 =====================
 !MCSCF STATE 1.1 Energy                       -40.058771286083
 Nuclear energy                                 10.89494611
 Kinetic energy                                 39.99723709
 One electron energy                           -74.49869701
 Two electron energy                            23.54497962
 Virial ratio                                    2.00153846
 
 !MCSCF STATE 1.1 Dipole moment                 -0.00036796     0.00145438     0.00003150
 Dipole moment /Debye                           -0.00093527     0.00369668     0.00008006
 
 No non-zero expectation values
 
 
 Natural orbital dump at molpro section 2140.2 (Orbital set 2)


 **********************************************************************************************************************************
 DATASETS  * FILE   NREC   LENGTH (MB)   RECORD NAMES
              1      20       29.69       500      610      700      900      950      970     1000      129      960     1100   
                                          VAR    BASINP    GEOM    SYMINP    ZMAT    AOBASIS   BASIS     P2S    ABASIS      S 
                                         1400     1410     1200     1210     1080     1600     1650     1300     1700     1380   
                                           T        V       H0       H01     AOSYM     SMH    MOLCAS    ERIS     OPER     JKOP   

              2       4        2.72       700     1000      520     2140   
                                         GEOM     BASIS   MCVARS    MCSCF   

 PROGRAMS   *        TOTAL     MULTI       INT
 CPU TIMES  *         0.60      0.20      0.24
 REAL TIME  *         1.17 SEC
 DISK USED  *        34.01 MB
 **********************************************************************************************************************************


 PROGRAM * RS2 (Multireference RS Perturbation Theory)     Authors: H.-J. Werner (1993), P. Celani (1998)


 Level shift= 0.20

 Convergence thresholds:  THRVAR = 1.00D-08  THRDEN = 1.00D-06

 Number of optimized states: 1  Roots:    1
 Number of reference states: 1  Roots:    1

 Reference symmetry:                   1   Singlet 
 Number of electrons:                 10
 Maximum number of shells:             4
 Maximum number of spin couplings:     5

 Reference space:        3 conf        3 CSFs
 N elec internal:       15 conf       15 CSFs
 N-1 el internal:       23 conf       32 CSFs
 N-2 el internal:       25 conf       52 CSFs

 Number of electrons in valence space:                      8
 Maximum number of open shell orbitals in reference space:  2
 Maximum number of open shell orbitals in internal spaces:  6


 Number of core orbitals:           1 (   1 )
 Number of closed-shell orbitals:   3 (   3 )
 Number of active  orbitals:        2 (   2 )
 Number of external orbitals:      28 (  28 )

 Molecular orbitals read from record     2140.2  Type=MCSCF/NATURAL (state 1.1)

 Integral transformation finished. Total CPU:   0.00 sec, npass=  1  Memory used:   0.11 MW


 Number of p-space configurations:   3

 Reference wavefunction optimized for reference space (refopt=1)

 State     Reference Energy 
     1       -40.05877129

 Number of blocks in overlap matrix:     2   Smallest eigenvalue:  0.10D+01
 Number of N-2 electron functions:      22
 Number of N-1 electron functions:      32

 Number of internal configurations:                   15
 Number of singly external configurations:           896
 Number of doubly external configurations:          8680
 Total number of contracted configurations:         9591
 Total number of uncontracted configurations:      21351

 Weight factors for SA-density in H0:    1.000000

 FIMAX=  0.42D-01  FXMAX=  0.38D-13  DIAG=  F  T  NOREF=1  NOINT=0  IHPPD=2

 Nuclear energy:                      10.89494611
 Core energy:                        -35.57001184
 Zeroth-order valence energy:         -4.36976586
 Zeroth-order total energy:          -29.04483159
 First-order energy:                 -11.01393970

 Using uncontracted singles

 Diagonal Coupling coefficients finished.               Storage:     883 words, CPU-Time:      0.00 seconds.
 Energy denominators for pairs finished in 0 passes.    Storage:    2295 words, CPU-time:      0.00 seconds.

 A level shift of 0.20 is applied.

  ITER. STATE  ROOT     SQ.NORM     CORR.ENERGY   TOTAL ENERGY   ENERGY CHANGE       DEN1      VAR(S)    VAR(P)      TIME
    1     1     1     1.00518758    -0.00103752   -40.05980880    -0.00103752    -0.12597352  0.52D-02  0.36D-01     0.02
    2     1     1     1.04129799    -0.13401008   -40.19278137    -0.13297257     0.00013036  0.16D-04  0.71D-05     0.02
    3     1     1     1.04127430    -0.13404566   -40.19281695    -0.00003558    -0.00002014  0.41D-07  0.47D-07     0.02
    4     1     1     1.04129261    -0.13404948   -40.19282077    -0.00000382     0.00000022  0.51D-09  0.11D-09     0.02
    5     1     1     1.04129262    -0.13404948   -40.19282077    -0.00000000    -0.00000006  0.20D-11  0.19D-11     0.03

 Energies without level shift correction:

    5     1     1     1.04129262    -0.12579096   -40.18456225

 Energy contributions for state 1.1:
 ===================================

            Energy contr.      SQ.Norm of FOWF
 Space I     -0.00000072          0.00000067
 Space S     -0.01128257          0.00509467
 Space P     -0.11450768          0.03619728


 =====================================
 Analysis of CPU times by interactions
 =====================================

       I      S      P

 I  33.3%
 S   0.0%   0.0%
 P   0.0%   0.0%   0.0%

 Initialization:  33.3%
 Other:           33.3%

 Total CPU:        0.0 seconds
 =====================================



 gnormi=  1.00000067  gnorms=  0.00509467  gnormp=  0.03619728  gnorm=  1.04129262
 ecorri= -0.00000072  ecorrs= -0.01128257  ecorrp= -0.11450768  ecorr= -0.13404948

 Reference coefficients greater than 0.0500000
 =============================================
 22220           0.7148178
 22202          -0.6993107


 RESULTS FOR STATE 1.1
 =====================

 Coefficient of reference function:   C(0) = 1.00000000 (fixed)   1.00000000 (relaxed)

 Energy contributions of configuration classes

 CLASS          SQ.NORM        ECORR1        ECORR2
 +++++++++++++++++++++++++++++++++++++++++++++++++++
 Internals    0.00000067   -0.00000072    0.13404795
 Singles      0.00509467   -0.01128257   -0.02404660
 Pairs        0.03619728   -0.11450768   -0.24405084
 Total        1.04129262   -0.12579096   -0.13404948
 +++++++++++++++++++++++++++++++++++++++++++++++++++


 Reference energy                     -40.05877129
 Nuclear energy                        10.89494611
 Kinetic energy                        40.08788247
 One electron energy                  -74.43360077
 Two electron energy                   23.34583389
 Virial quotient                       -1.00261771
 Correlation energy                    -0.13404948
 !RSPT2 STATE 1.1 Energy              -40.192820769519

 Properties without orbital relaxation:

 !RSPT2 STATE 1.1 Dipole moment        -0.00033837     0.00150288     0.00000354
 Dipole moment /Debye                  -0.00086005     0.00381994     0.00000900


 **********************************************************************************************************************************
 DATASETS  * FILE   NREC   LENGTH (MB)   RECORD NAMES
              1      20       29.69       500      610      700      900      950      970     1000      129      960     1100   
                                          VAR    BASINP    GEOM    SYMINP    ZMAT    AOBASIS   BASIS     P2S    ABASIS      S 
                                         1400     1410     1200     1210     1080     1600     1650     1300     1700     1380   
                                           T        V       H0       H01     AOSYM     SMH    MOLCAS    ERIS     OPER     JKOP   

              2       4        2.72       700     1000      520     2140   
                                         GEOM     BASIS   MCVARS    MCSCF   

 PROGRAMS   *        TOTAL       RS2     MULTI       INT
 CPU TIMES  *         0.67      0.06      0.20      0.24
 REAL TIME  *         1.32 SEC
 DISK USED  *        34.01 MB
 **********************************************************************************************************************************
 SETTING MOLPRO_ENERGY  =     4.44004810D-05  AU                              

 RS2/cc-pVDZ energy=    -40.192820769519

             RS2           MULTI
    -40.19282077    -40.05877129
 **********************************************************************************************************************************
 Molpro calculation terminated
