
 Working directory              : /scratch/cc//molpro.zt5abttInc/
 Global scratch directory       : /scratch/cc//molpro.zt5abttInc/
 Wavefunction directory         : /home/chimica2/cavallotti/wfu/
 Main file repository           : /scratch/cc//molpro.zt5abttInc/

 id        : polimi

 Nodes     nprocs
 node-6-11    1
 Distribution of processes:   nprocs(total)=    2   nprocs(compute)=    1   nprocs(helper)=    1
 GA implementation: MPI file
 GA implementation (serial work in mppx): MPI file

 Using customized tuning parameters: mindgm=1; mindgv=20; mindgc=4; mindgr=1; noblas=0; minvec=7
 default implementation of scratch files=df  


 Variables initialized (1009), CPU time= 0.01 sec
  memory,         400 ,m
 
 symmetry, nosym; orient, noorient
 angstrom
 geomtyp=xyz
 geometry={
 5
 rotational dynamics
 C, 0.0597407, -0.00782477, -0.127345
 H, 0.440658, 0.099675, -1.13027
 H, -0.40438, 0.831403, 0.365411
 H, 0.140067, -0.954964, 0.38157
 H, -0.887668, 0.117055, 1.89957
 }
 
  basis=cc-pvdz
  {multi;closed, 4;occ, 6;wf, 10,1,0,;state,1;maxiter,40}
  if (iterations.ge.0) then
     {rs2,shift=0.2;orbital,IGNORE_ERROR;state,1}
     molpro_energy = energy +   40.192865169999997
  else
     molpro_energy = 10.0
  endif
 Commands initialized (810), CPU time= 0.01 sec, 661 directives.
 Default parameters read. Elapsed time= 0.15 sec

 Checking input...
 Passed
1


                                         ***  PROGRAM SYSTEM MOLPRO  ***
                                       Copyright, TTI GmbH Stuttgart, 2015
                                    Version 2021.2 linked Jun  2 2021 16:00:59


 **********************************************************************************************************************************
 LABEL *                                                                                 
  64 bit serial version                                                                  DATE: 03-Jun-23          TIME: 09:11:58  
 **********************************************************************************************************************************

 SHA1:             1987c3f1b0c3ae76932bc24993909f2d7ae6b1f1
 **********************************************************************************************************************************

 Memory per process:       400 MW
 Total memory per node:    400 MW

 GA preallocation disabled
 GA check disabled

 Variable memory set to 400.0 MW

 SETTING GEOMTYP        =    XYZ
 ZSYMEL=NOSYM
 ZUNIT=ANG

 SETTING BASIS          =    CC-PVDZ


 Recomputing integrals since basis changed


 Using spherical harmonics

 Library entry C      S cc-pVDZ              selected for orbital group  1
 Library entry C      P cc-pVDZ              selected for orbital group  1
 Library entry C      D cc-pVDZ              selected for orbital group  1
 Library entry H      S cc-pVDZ              selected for orbital group  2
 Library entry H      P cc-pVDZ              selected for orbital group  2


 PROGRAM * SEWARD (Integral evaluation for generally contracted gaussian basis sets)     Author: Roland Lindh, 1990

 Geometry written to block  1 of record 700


 Point group  C1  



 ATOMIC COORDINATES

 NR  ATOM    CHARGE       X              Y              Z

   1  C       6.00    0.112893561   -0.014786672   -0.240647173
   2  H       1.00    0.832722935    0.188358451   -2.135900747
   3  H       1.00   -0.764167450    1.571123969    0.690526713
   4  H       1.00    0.264688269   -1.804620419    0.721062797
   5  H       1.00   -1.677449410    0.221201892    3.589667055

 Bond lengths in Bohr (Angstrom)

 1-2  2.037500522  1-3  2.037506660  1-4  2.037506452
     ( 1.078198843)     ( 1.078202091)     ( 1.078201981)

 Bond angles

  2-1-3  119.97234526   2-1-4  120.02077931   3-1-4  120.00659654

 NUCLEAR CHARGE:                   10
 NUMBER OF PRIMITIVE AOS:          55
 NUMBER OF SYMMETRY AOS:           54
 NUMBER OF CONTRACTIONS:           34   (   34A   )
 NUMBER OF INNER CORE ORBITALS:     0   (    0A   )
 NUMBER OF OUTER CORE ORBITALS:     1   (    1A   )
 NUMBER OF VALENCE ORBITALS:        8   (    8A   )


 NUCLEAR REPULSION ENERGY   11.81111535

 Eigenvalues of metric

         1 0.145E-01 0.339E-01 0.352E-01 0.417E-01 0.461E-01 0.528E-01 0.741E-01 0.111E+00


 Contracted 2-electron integrals neglected if value below      1.0D-11
 AO integral compression algorithm  1   Integral accuracy      1.0D-11

     1.311 MB (compressed) written to integral file ( 60.5%)


 NUMBER OF SORTED TWO-ELECTRON INTEGRALS:     177310.     BUFFER LENGTH:  32768
 NUMBER OF SEGMENTS:   1  SEGMENT LENGTH:     177310      RECORD LENGTH: 524288

 Memory used in sort:       0.73 MW

 SORT1 READ      219389. AND WROTE      172120. INTEGRALS IN      1 RECORDS. CPU TIME:     0.00 SEC, REAL TIME:     0.01 SEC
 SORT2 READ      172120. AND WROTE      177310. INTEGRALS IN      5 RECORDS. CPU TIME:     0.02 SEC, REAL TIME:     0.03 SEC

 FILE SIZES:   FILE 1:    31.4 MBYTE,  FILE 4:     4.2 MBYTE,   TOTAL:     35.6 MBYTE

 OPERATOR DM      FOR CENTER  0  COORDINATES:    0.000000    0.000000    0.000000


 **********************************************************************************************************************************
 DATASETS  * FILE   NREC   LENGTH (MB)   RECORD NAMES
              1      19       29.47       500      610      700      900      950      970     1000      129      960     1100   
                                          VAR    BASINP    GEOM    SYMINP    ZMAT    AOBASIS   BASIS     P2S    ABASIS      S 
                                         1400     1410     1200     1210     1080     1600     1650     1300     1700   
                                           T        V       H0       H01     AOSYM     SMH    MOLCAS    ERIS     OPER   

 PROGRAMS   *        TOTAL       INT
 CPU TIMES  *         0.41      0.26
 REAL TIME  *         0.85 SEC
 DISK USED  *        34.26 MB
 **********************************************************************************************************************************

 PROGRAM * MULTI (Direct Multiconfiguration SCF)       Authors: P.J. Knowles, H.-J. Werner (1984)
                                                                D.A. Kreplin, P.J. Knowles, H.-J. Werner (2019)

 Number of closed-shell orbitals:   4 (   4 )
 Number of active  orbitals:        2 (   2 )
 Number of external orbitals:      28 (  28 )

 State symmetry 1

 Number of active electrons:   2    Spin symmetry=Singlet   Space symmetry=1
 Number of states:             1
 Number of CSFs:               3   (4 determinants, 4 intermediate states)

 Orbital guess generated from atomic densities. Full valence occupancy:    9

 Wavefunction dump at record             2140.2

 Convergence thresholds  0.10E-04 (gradient)  0.10E-05 (energy)
 
 Number of orbital rotations:  176  ( 8 closed/active, 112 closed/virtual, 0 active/active, 56 active/virtual )
 Total number of variables:    180
 
  Second-order MCSCF: L-BFGS accelerated
 
 ITER  MIC  NCI  NEG     ENERGY(VAR)    ENERGY(PROJ) ENERGY CHANGE       GRAD(0)  GRAD(ORB)   GRAD(CI)      STEP      TIME
   1    6    5    0    -40.01587686     -40.04410821   -0.02823136    0.16672691 0.00022848 0.00000000  0.15E+00      0.09
   2    8    7    0    -40.04407250     -40.04408008   -0.00000759    0.00403539 0.00000007 0.00000000  0.22E-02      0.19
   3    4    4    0    -40.04408009     -40.04408009   -0.00000000    0.00000335 0.00000000 0.00000000  0.17E-05      0.26

 CONVERGENCE REACHED!  Final gradient:    0.00000000 ( 0.42E-10)
                       Final energy:    -40.04408009
 
 First order charge density matrix for state 1.1 saved on record 2140.2 (density set 1)
 
 Results for state 1.1
 =====================
 !MCSCF STATE 1.1 Energy                       -40.044080086645
 Nuclear energy                                 11.81111535
 Kinetic energy                                 40.06042277
 One electron energy                           -76.27328909
 Two electron energy                            24.41809365
 Virial ratio                                    1.99959205
 
 !MCSCF STATE 1.1 Dipole moment                  0.03596463     0.00472869    -0.08108633
 Dipole moment /Debye                            0.09141298     0.01201914    -0.20610090
 
 No non-zero expectation values
 
 
 Natural orbital dump at molpro section 2140.2 (Orbital set 2)


 **********************************************************************************************************************************
 DATASETS  * FILE   NREC   LENGTH (MB)   RECORD NAMES
              1      20       29.77       500      610      700      900      950      970     1000      129      960     1100   
                                          VAR    BASINP    GEOM    SYMINP    ZMAT    AOBASIS   BASIS     P2S    ABASIS      S 
                                         1400     1410     1200     1210     1080     1600     1650     1300     1700     1380   
                                           T        V       H0       H01     AOSYM     SMH    MOLCAS    ERIS     OPER     JKOP   

              2       4        2.72       700     1000      520     2140   
                                         GEOM     BASIS   MCVARS    MCSCF   

 PROGRAMS   *        TOTAL     MULTI       INT
 CPU TIMES  *         0.63      0.22      0.26
 REAL TIME  *         1.23 SEC
 DISK USED  *        34.26 MB
 **********************************************************************************************************************************


 PROGRAM * RS2 (Multireference RS Perturbation Theory)     Authors: H.-J. Werner (1993), P. Celani (1998)


 Level shift= 0.20

 Convergence thresholds:  THRVAR = 1.00D-08  THRDEN = 1.00D-06

 Number of optimized states: 1  Roots:    1
 Number of reference states: 1  Roots:    1

 Reference symmetry:                   1   Singlet 
 Number of electrons:                 10
 Maximum number of shells:             4
 Maximum number of spin couplings:     5

 Reference space:        3 conf        3 CSFs
 N elec internal:       15 conf       15 CSFs
 N-1 el internal:       23 conf       32 CSFs
 N-2 el internal:       25 conf       52 CSFs

 Number of electrons in valence space:                      8
 Maximum number of open shell orbitals in reference space:  2
 Maximum number of open shell orbitals in internal spaces:  6


 Number of core orbitals:           1 (   1 )
 Number of closed-shell orbitals:   3 (   3 )
 Number of active  orbitals:        2 (   2 )
 Number of external orbitals:      28 (  28 )

 Molecular orbitals read from record     2140.2  Type=MCSCF/NATURAL (state 1.1)

 Integral transformation finished. Total CPU:   0.00 sec, npass=  1  Memory used:   0.11 MW


 Number of p-space configurations:   3

 Reference wavefunction optimized for reference space (refopt=1)

 State     Reference Energy 
     1       -40.04408009

 Number of blocks in overlap matrix:     2   Smallest eigenvalue:  0.10D+01
 Number of N-2 electron functions:      22
 Number of N-1 electron functions:      32

 Number of internal configurations:                   15
 Number of singly external configurations:           896
 Number of doubly external configurations:          8680
 Total number of contracted configurations:         9591
 Total number of uncontracted configurations:      21351

 Weight factors for SA-density in H0:    1.000000

 FIMAX=  0.29D-01  FXMAX=  0.36D-13  DIAG=  F  T  NOREF=1  NOINT=0  IHPPD=2

 Nuclear energy:                      11.81111535
 Core energy:                        -35.77562618
 Zeroth-order valence energy:         -4.39546066
 Zeroth-order total energy:          -28.35997148
 First-order energy:                 -11.68410860

 Using uncontracted singles

 Diagonal Coupling coefficients finished.               Storage:     883 words, CPU-Time:      0.00 seconds.
 Energy denominators for pairs finished in 0 passes.    Storage:    2295 words, CPU-time:      0.00 seconds.

 A level shift of 0.20 is applied.

  ITER. STATE  ROOT     SQ.NORM     CORR.ENERGY   TOTAL ENERGY   ENERGY CHANGE       DEN1      VAR(S)    VAR(P)      TIME
    1     1     1     1.00597847    -0.00119569   -40.04527578    -0.00119569    -0.12818191  0.60D-02  0.36D-01     0.01
    2     1     1     1.04228701    -0.13653492   -40.18061500    -0.13533922     0.00003841  0.20D-04  0.82D-05     0.01
    3     1     1     1.04229222    -0.13658559   -40.18066567    -0.00005067    -0.00002747  0.73D-07  0.54D-07     0.02
    4     1     1     1.04231205    -0.13658978   -40.18066987    -0.00000419     0.00000005  0.82D-09  0.18D-09     0.02
    5     1     1     1.04231230    -0.13658983   -40.18066992    -0.00000005    -0.00000011  0.50D-11  0.27D-11     0.02

 Energies without level shift correction:

    5     1     1     1.04231230    -0.12812737   -40.17220746

 Energy contributions for state 1.1:
 ===================================

            Energy contr.      SQ.Norm of FOWF
 Space I     -0.00000075          0.00000545
 Space S     -0.01290049          0.00598179
 Space P     -0.11522613          0.03632506


 =====================================
 Analysis of CPU times by interactions
 =====================================

       I      S      P

 I   0.0%
 S   0.0%   0.0%
 P   0.0%  50.0%   0.0%

 Initialization:  50.0%
 Other:            0.0%

 Total CPU:        0.0 seconds
 =====================================



 gnormi=  1.00000545  gnorms=  0.00598179  gnormp=  0.03632506  gnorm=  1.04231230
 ecorri= -0.00000075  ecorrs= -0.01290049  ecorrp= -0.11522613  ecorr= -0.13658983

 Reference coefficients greater than 0.0500000
 =============================================
 22220           0.7164159
 22202          -0.6976734


 RESULTS FOR STATE 1.1
 =====================

 Coefficient of reference function:   C(0) = 1.00000000 (fixed)   1.00000000 (relaxed)

 Energy contributions of configuration classes

 CLASS          SQ.NORM        ECORR1        ECORR2
 +++++++++++++++++++++++++++++++++++++++++++++++++++
 Internals    0.00000545   -0.00000075    0.13658823
 Singles      0.00598179   -0.01290049   -0.02750506
 Pairs        0.03632506   -0.11522613   -0.24567300
 Total        1.04231230   -0.12812737   -0.13658983
 +++++++++++++++++++++++++++++++++++++++++++++++++++


 Reference energy                     -40.04408009
 Nuclear energy                        11.81111535
 Kinetic energy                        40.15147356
 One electron energy                  -76.20583178
 Two electron energy                   24.21404651
 Virial quotient                       -1.00072716
 Correlation energy                    -0.13658983
 !RSPT2 STATE 1.1 Energy              -40.180669917627

 Properties without orbital relaxation:

 !RSPT2 STATE 1.1 Dipole moment         0.03772344     0.00443025    -0.08485435
 Dipole moment /Debye                   0.09588343     0.01126058    -0.21567825


 **********************************************************************************************************************************
 DATASETS  * FILE   NREC   LENGTH (MB)   RECORD NAMES
              1      20       29.77       500      610      700      900      950      970     1000      129      960     1100   
                                          VAR    BASINP    GEOM    SYMINP    ZMAT    AOBASIS   BASIS     P2S    ABASIS      S 
                                         1400     1410     1200     1210     1080     1600     1650     1300     1700     1380   
                                           T        V       H0       H01     AOSYM     SMH    MOLCAS    ERIS     OPER     JKOP   

              2       4        2.72       700     1000      520     2140   
                                         GEOM     BASIS   MCVARS    MCSCF   

 PROGRAMS   *        TOTAL       RS2     MULTI       INT
 CPU TIMES  *         0.70      0.06      0.22      0.26
 REAL TIME  *         1.38 SEC
 DISK USED  *        34.26 MB
 **********************************************************************************************************************************
 SETTING MOLPRO_ENERGY  =         0.01219525  AU                              

 RS2/cc-pVDZ energy=    -40.180669917627

             RS2           MULTI
    -40.18066992    -40.04408009
 **********************************************************************************************************************************
 Molpro calculation terminated
