 Entering Gaussian System, Link 0=g09
 Input=geom.com
 Output=geom.log
 Initial command:
 /software/cinetica/g09d1/g09d01/d01/build-node-6-2-59348/src/main/l1.exe "/scratch/cc/139124/Gau-192065.inp" -scrdir="/scratch/cc/139124/"
 Entering Link 1 = /software/cinetica/g09d1/g09d01/d01/build-node-6-2-59348/src/main/l1.exe PID=    192066.
  
 Copyright (c) 1988,1990,1992,1993,1995,1998,2003,2009,2013,
            Gaussian, Inc.  All Rights Reserved.
  
 This is part of the Gaussian(R) 09 program.  It is based on
 the Gaussian(R) 03 system (copyright 2003, Gaussian, Inc.),
 the Gaussian(R) 98 system (copyright 1998, Gaussian, Inc.),
 the Gaussian(R) 94 system (copyright 1995, Gaussian, Inc.),
 the Gaussian 92(TM) system (copyright 1992, Gaussian, Inc.),
 the Gaussian 90(TM) system (copyright 1990, Gaussian, Inc.),
 the Gaussian 88(TM) system (copyright 1988, Gaussian, Inc.),
 the Gaussian 86(TM) system (copyright 1986, Carnegie Mellon
 University), and the Gaussian 82(TM) system (copyright 1983,
 Carnegie Mellon University). Gaussian is a federally registered
 trademark of Gaussian, Inc.
  
 This software contains proprietary and confidential information,
 including trade secrets, belonging to Gaussian, Inc.
  
 This software is provided under written license and may be
 used, copied, transmitted, or stored only in accord with that
 written license.
  
 The following legend is applicable only to US Government
 contracts under FAR:
  
                    RESTRICTED RIGHTS LEGEND
  
 Use, reproduction and disclosure by the US Government is
 subject to restrictions as set forth in subparagraphs (a)
 and (c) of the Commercial Computer Software - Restricted
 Rights clause in FAR 52.227-19.
  
 Gaussian, Inc.
 340 Quinnipiac St., Bldg. 40, Wallingford CT 06492
  
  
 ---------------------------------------------------------------
 Warning -- This program may not be used in any manner that
 competes with the business of Gaussian, Inc. or will provide
 assistance to any competitor of Gaussian, Inc.  The licensee
 of this program is prohibited from giving any competitor of
 Gaussian, Inc. access to this program.  By using this program,
 the user acknowledges that Gaussian, Inc. is engaged in the
 business of creating and licensing software in the field of
 computational chemistry and represents and warrants to the
 licensee that it is not a competitor of Gaussian, Inc. and that
 it will not use this program in any manner prohibited above.
 ---------------------------------------------------------------
  

 Cite this work as:
 Gaussian 09, Revision D.01,
 M. J. Frisch, G. W. Trucks, H. B. Schlegel, G. E. Scuseria, 
 M. A. Robb, J. R. Cheeseman, G. Scalmani, V. Barone, B. Mennucci, 
 G. A. Petersson, H. Nakatsuji, M. Caricato, X. Li, H. P. Hratchian, 
 A. F. Izmaylov, J. Bloino, G. Zheng, J. L. Sonnenberg, M. Hada, 
 M. Ehara, K. Toyota, R. Fukuda, J. Hasegawa, M. Ishida, T. Nakajima, 
 Y. Honda, O. Kitao, H. Nakai, T. Vreven, J. A. Montgomery, Jr., 
 J. E. Peralta, F. Ogliaro, M. Bearpark, J. J. Heyd, E. Brothers, 
 K. N. Kudin, V. N. Staroverov, T. Keith, R. Kobayashi, J. Normand, 
 K. Raghavachari, A. Rendell, J. C. Burant, S. S. Iyengar, J. Tomasi, 
 M. Cossi, N. Rega, J. M. Millam, M. Klene, J. E. Knox, J. B. Cross, 
 V. Bakken, C. Adamo, J. Jaramillo, R. Gomperts, R. E. Stratmann, 
 O. Yazyev, A. J. Austin, R. Cammi, C. Pomelli, J. W. Ochterski, 
 R. L. Martin, K. Morokuma, V. G. Zakrzewski, G. A. Voth, 
 P. Salvador, J. J. Dannenberg, S. Dapprich, A. D. Daniels, 
 O. Farkas, J. B. Foresman, J. V. Ortiz, J. Cioslowski, 
 and D. J. Fox, Gaussian, Inc., Wallingford CT, 2013.
 
 ******************************************
 Gaussian 09:  EM64L-G09RevD.01 24-Apr-2013
                27-May-2023 
 ******************************************
 %mem=400MW
 %chk=tmp
 %NProcShared= 32
 Will use up to   32 processors via shared memory.
 ----------------------------------------------------------------------
 # uwb97xd/aug-cc-pvtz opt=(noeig,intern,maxcyc=50) # int=ultrafine nos
 ym freq iop(7/33=1) guess=(mix,always)
 ----------------------------------------------------------------------
 1/6=50,10=7,11=1,14=-1,18=40,26=4,38=1/1,3;
 2/12=2,15=1,17=6,18=5,29=3,40=1/2;
 3/5=16,6=1,7=10,11=2,16=1,25=1,30=1,71=1,74=-58,75=-5,116=2/1,2,3;
 4/13=-1/1;
 5/5=2,38=5/2;
 6/7=2,8=2,9=2,10=2,28=1/1;
 7/29=1,30=1,33=1/1,2,3,16;
 1/6=50,10=7,11=1,14=-1,18=40,26=4/3(2);
 2/15=1,29=3/2;
 99//99;
 2/15=1,29=3/2;
 3/5=16,6=1,7=10,11=2,16=1,25=1,30=1,71=1,74=-58,75=-5,116=2/1,2,3;
 4/13=-1/1;
 5/5=2,38=5/2;
 7/30=1,33=1/1,2,3,16;
 1/6=50,11=1,14=-1,18=40,26=4/3(-5);
 2/15=1,29=3/2;
 6/7=2,8=2,9=2,10=2,19=2,28=1/1;
 99/9=1/99;
 ------
 geom 0
 ------
 Symbolic Z-matrix:
 Charge =  0 Multiplicity = 1
 C1
 H2                   C1   R1
 H3                   C1   R2       H2   A2
 H4                   C1   R3       H2   A3       H3   D3       0
 C21                  C1   BB       H2   ANG1     H3   DH1      0
 H22                  C21  R21      C1   ANG2     H2   DH2      0
 H23                  C21  R22      H22  A22      C1   DH3      0
 H24                  C21  R23      H22  A23      H23  D23      0
       Variables:
  R1                    1.0834                   
  R2                    1.0835                   
  R3                    1.0835                   
  A2                  112.8034                   
  A3                  112.8036                   
  D3                  230.784                    
  R21                   1.0834                   
  R22                   1.0835                   
  R23                   1.0835                   
  A22                 112.8017                   
  A23                 112.8053                   
  D23                 129.2159                   
  ANG2                105.9023                   
  DH3                 115.383                    
  DH2                  60.0096                   
  DH1                 115.3954                   
  ANG1                105.8979                   
       Constants:
  BB                    3.4                      
 

 GradGradGradGradGradGradGradGradGradGradGradGradGradGradGradGradGradGrad
 Berny optimization.
 Initialization pass.
                       ----------------------------
                       !    Initial Parameters    !
                       ! (Angstroms and Degrees)  !
 ----------------------                            ----------------------
 !      Name          Value   Derivative information (Atomic Units)     !
 ------------------------------------------------------------------------
 !       R1          1.0834   estimate D2E/DX2                          !
 !       R2          1.0835   estimate D2E/DX2                          !
 !       R3          1.0835   estimate D2E/DX2                          !
 !       A2        112.8034   estimate D2E/DX2                          !
 !       A3        112.8036   estimate D2E/DX2                          !
 !       D3        230.784    estimate D2E/DX2                          !
 !       R21         1.0834   estimate D2E/DX2                          !
 !       R22         1.0835   estimate D2E/DX2                          !
 !       R23         1.0835   estimate D2E/DX2                          !
 !       A22       112.8017   estimate D2E/DX2                          !
 !       A23       112.8053   estimate D2E/DX2                          !
 !       D23       129.2159   estimate D2E/DX2                          !
 !      ANG2       105.9023   estimate D2E/DX2                          !
 !       DH3       115.383    estimate D2E/DX2                          !
 !       DH2        60.0096   estimate D2E/DX2                          !
 !       DH1       115.3954   estimate D2E/DX2                          !
 !      ANG1       105.8979   estimate D2E/DX2                          !
 !       BB          3.4      Frozen                                    !
 ------------------------------------------------------------------------
 Trust Radius=3.00D-01 FncErr=1.00D-07 GrdErr=1.00D-06
 Number of steps in this run=     50 maximum allowed number of steps=    100.
 GradGradGradGradGradGradGradGradGradGradGradGradGradGradGradGradGradGrad

 ---------------------------------------------------------------------------------------------------
                            Z-MATRIX (ANGSTROMS AND DEGREES)
   CD    Cent   Atom    N1       Length/X        N2       Alpha/Y        N3        Beta/Z          J
 ---------------------------------------------------------------------------------------------------
      1      1  C 
      2      2  H        1   1.083400(     1)
      3      3  H        1   1.083500(     2)      2  112.803(     8)
      4      4  H        1   1.083500(     3)      2  112.804(     9)      3  230.784(    14)      0
      5      5  C        1   3.400000(     4)      2  105.898(    10)      3  115.395(    15)      0
      6      6  H        5   1.083400(     5)      1  105.902(    11)      2   60.010(    16)      0
      7      7  H        5   1.083500(     6)      6  112.802(    12)      1  115.383(    17)      0
      8      8  H        5   1.083500(     7)      6  112.805(    13)      7  129.216(    18)      0
 ---------------------------------------------------------------------------------------------------
                         Z-Matrix orientation:                         
 ---------------------------------------------------------------------
 Center     Atomic      Atomic             Coordinates (Angstroms)
 Number     Number       Type             X           Y           Z
 ---------------------------------------------------------------------
      1          6           0        0.000000    0.000000    0.000000
      2          1           0        0.000000    0.000000    1.083400
      3          1           0        0.998814    0.000000   -0.419932
      4          1           0       -0.631495    0.773848   -0.419936
      5          6           0       -1.402361   -2.953978   -0.931341
      6          1           0       -2.401213   -2.953745   -0.511758
      7          1           0       -0.770724   -3.727746   -0.511473
      8          1           0       -1.401989   -2.954357   -2.014841
 ---------------------------------------------------------------------
                    Distance matrix (angstroms):
                    1          2          3          4          5
     1  C    0.000000
     2  H    1.083400   0.000000
     3  H    1.083500   1.804893   0.000000
     4  H    1.083500   1.804895   1.804646   0.000000
     5  C    3.400000   3.840805   3.840985   3.840893   0.000000
     6  H    3.840876   4.127343   4.504800   4.127382   1.083400
     7  H    3.840795   4.127193   4.127436   4.504676   1.083500
     8  H    3.841013   4.504764   4.127446   4.127577   1.083500
                    6          7          8
     6  H    0.000000
     7  H    1.804875   0.000000
     8  H    1.804912   1.804645   0.000000
 Symmetry turned off by external request.
 Stoichiometry    C2H6
 Framework group  C1[X(C2H6)]
 Deg. of freedom    18
 Full point group                 C1      NOp   1
 Rotational constants (GHZ):     76.9730380      5.2233323      5.2232963
 Standard basis: Aug-CC-pVTZ (5D, 7F)
   230 basis functions,   306 primitive gaussians,   260 cartesian basis functions
     9 alpha electrons        9 beta electrons
       nuclear repulsion energy        31.0266359228 Hartrees.
 NAtoms=    8 NActive=    8 NUniq=    8 SFac= 1.00D+00 NAtFMM=   60 NAOKFM=F Big=F
 Integral buffers will be    131072 words long.
 Raffenetti 2 integral format.
 Two-electron integral symmetry is turned off.
 Nuclear repulsion after empirical dispersion term =       31.0255521097 Hartrees.
 One-electron integrals computed using PRISM.
 NBasis=   230 RedAO= T EigKep=  1.10D-04  NBF=   230
 NBsUse=   230 1.00D-06 EigRej= -1.00D+00 NBFU=   230
 ExpMin= 2.53D-02 ExpMax= 8.24D+03 ExpMxC= 2.81D+02 IAcc=3 IRadAn=         5 AccDes= 0.00D+00
 Harris functional with IExCor= 4639 and IRadAn=       5 diagonalized for initial guess.
 HarFok:  IExCor= 4639 AccDes= 0.00D+00 IRadAn=         5 IDoV= 1 UseB2=F ITyADJ=14
 ICtDFT=  3500011 ScaDFX=  1.000000  1.000000  1.000000  1.000000
 FoFCou: FMM=F IPFlag=           0 FMFlag=      100000 FMFlg1=           0
         NFxFlg=           0 DoJE=T BraDBF=F KetDBF=T FulRan=T
         wScrn=  0.000000 ICntrl=     500 IOpCl=  0 I1Cent=   200000004 NGrid=           0
         NMat0=    1 NMatS0=      1 NMatT0=    0 NMatD0=    1 NMtDS0=    0 NMtDT0=    0
 Symmetry not used in FoFCou.
 Mixing orbitals, IMix= 1 IMixAn=  0 NRI=1 NE=    9 Coef=  7.07106781D-01  7.07106781D-01
 Mixing orbitals, IMix= 1 IMixAn=  0 NRI=1 NE=    9 Coef= -7.07106781D-01  7.07106781D-01
 Initial guess <Sx>= 0.0000 <Sy>= 0.0000 <Sz>= 0.0000 <S**2>= 1.0000 S= 0.6180
 Requested convergence on RMS density matrix=1.00D-08 within 128 cycles.
 Requested convergence on MAX density matrix=1.00D-06.
 Requested convergence on             energy=1.00D-06.
 No special actions if energy rises.
 SCF Done:  E(UwB97XD) =  -79.6703885709     A.U. after   11 cycles
            NFock= 11  Conv=0.62D-08     -V/T= 2.0072
 <Sx>= 0.0000 <Sy>= 0.0000 <Sz>= 0.0000 <S**2>= 0.9196 S= 0.5815
 <L.S>=  0.00000000000    
 Annihilation of the first spin contaminant:
 S**2 before annihilation     0.9196,   after     0.0411

 **********************************************************************

            Population analysis using the SCF density.

 **********************************************************************

 Alpha  occ. eigenvalues --  -10.29893 -10.28758  -0.78583  -0.74645  -0.49524
 Alpha  occ. eigenvalues --   -0.49516  -0.48193  -0.48185  -0.33104
 Alpha virt. eigenvalues --   -0.00646   0.03350   0.04778   0.04779   0.04981
 Alpha virt. eigenvalues --    0.06615   0.06615   0.11194   0.13202   0.13204
 Alpha virt. eigenvalues --    0.13363   0.13656   0.13657   0.14565   0.15265
 Alpha virt. eigenvalues --    0.20529   0.20532   0.20887   0.20889   0.23096
 Alpha virt. eigenvalues --    0.23096   0.29062   0.30292   0.30641   0.30643
 Alpha virt. eigenvalues --    0.32249   0.32694   0.32696   0.33425   0.33426
 Alpha virt. eigenvalues --    0.33593   0.35734   0.36178   0.37043   0.38476
 Alpha virt. eigenvalues --    0.38788   0.38789   0.40595   0.40597   0.41050
 Alpha virt. eigenvalues --    0.42850   0.42851   0.44469   0.44561   0.44564
 Alpha virt. eigenvalues --    0.48361   0.48362   0.51517   0.51520   0.57996
 Alpha virt. eigenvalues --    0.60323   0.60325   0.66782   0.66786   0.69405
 Alpha virt. eigenvalues --    0.71848   0.75962   0.76164   0.76168   0.77426
 Alpha virt. eigenvalues --    0.77428   0.81525   0.82075   0.82300   0.82300
 Alpha virt. eigenvalues --    0.84647   0.87365   0.91703   0.91703   0.91939
 Alpha virt. eigenvalues --    0.94192   0.94462   0.94463   0.96463   0.96466
 Alpha virt. eigenvalues --    0.98142   0.98143   0.98492   0.99398   0.99400
 Alpha virt. eigenvalues --    1.02956   1.05060   1.06959   1.06965   1.09872
 Alpha virt. eigenvalues --    1.09873   1.10991   1.12444   1.12445   1.14434
 Alpha virt. eigenvalues --    1.14435   1.14507   1.17005   1.17010   1.17835
 Alpha virt. eigenvalues --    1.18988   1.18989   1.28859   1.34666   1.36385
 Alpha virt. eigenvalues --    1.36391   1.37386   1.37391   1.45584   1.45588
 Alpha virt. eigenvalues --    1.46696   1.50887   1.50892   1.51217   1.51654
 Alpha virt. eigenvalues --    1.54634   1.54978   1.54989   1.55287   1.55295
 Alpha virt. eigenvalues --    1.59829   1.66640   1.75105   1.75112   1.76286
 Alpha virt. eigenvalues --    1.76295   1.79881   1.82839   1.88467   1.90327
 Alpha virt. eigenvalues --    1.91543   1.91556   1.92457   1.92468   2.03709
 Alpha virt. eigenvalues --    2.03712   2.08331   2.08334   2.11564   2.14080
 Alpha virt. eigenvalues --    2.73203   2.80771   2.81398   2.81401   2.84764
 Alpha virt. eigenvalues --    2.84791   2.84793   3.02726   3.15806   3.15808
 Alpha virt. eigenvalues --    3.20763   3.20766   3.28928   3.33344   3.33346
 Alpha virt. eigenvalues --    3.33982   3.35333   3.35334   3.36964   3.42512
 Alpha virt. eigenvalues --    3.43383   3.43385   3.47639   3.47641   3.51092
 Alpha virt. eigenvalues --    3.54551   3.58226   3.58231   3.60460   3.60464
 Alpha virt. eigenvalues --    3.74010   3.74017   3.74970   3.74976   3.80067
 Alpha virt. eigenvalues --    3.80433   3.80985   3.82902   3.91999   3.92003
 Alpha virt. eigenvalues --    3.93779   3.93781   4.17421   4.18518   4.18522
 Alpha virt. eigenvalues --    4.20361   4.25227   4.25232   4.41918   4.49333
 Alpha virt. eigenvalues --    4.49337   4.49699   4.49703   4.58614   4.62305
 Alpha virt. eigenvalues --    4.62311   4.63519   4.65921   4.65929   4.66676
 Alpha virt. eigenvalues --    4.85265   4.89189   4.92902   4.92930   4.93695
 Alpha virt. eigenvalues --    4.93723   5.14442   5.14463   5.14828   5.16502
 Alpha virt. eigenvalues --    5.16525   5.17870   5.55271   5.56761   5.63654
 Alpha virt. eigenvalues --    5.69233   5.69274   5.69914   5.69955   5.70816
 Alpha virt. eigenvalues --    6.25270   6.25295   6.26655   6.26678  15.85814
 Alpha virt. eigenvalues --   15.88484
  Beta  occ. eigenvalues --  -10.29893 -10.28758  -0.78583  -0.74645  -0.49524
  Beta  occ. eigenvalues --   -0.49516  -0.48194  -0.48185  -0.33104
  Beta virt. eigenvalues --   -0.00646   0.03350   0.04778   0.04779   0.04981
  Beta virt. eigenvalues --    0.06615   0.06615   0.11194   0.13202   0.13204
  Beta virt. eigenvalues --    0.13363   0.13656   0.13657   0.14565   0.15265
  Beta virt. eigenvalues --    0.20529   0.20532   0.20887   0.20889   0.23096
  Beta virt. eigenvalues --    0.23096   0.29062   0.30292   0.30641   0.30643
  Beta virt. eigenvalues --    0.32249   0.32694   0.32696   0.33425   0.33426
  Beta virt. eigenvalues --    0.33593   0.35734   0.36178   0.37043   0.38476
  Beta virt. eigenvalues --    0.38788   0.38789   0.40595   0.40597   0.41050
  Beta virt. eigenvalues --    0.42850   0.42851   0.44469   0.44561   0.44564
  Beta virt. eigenvalues --    0.48361   0.48362   0.51517   0.51520   0.57996
  Beta virt. eigenvalues --    0.60323   0.60324   0.66782   0.66786   0.69405
  Beta virt. eigenvalues --    0.71848   0.75962   0.76165   0.76167   0.77426
  Beta virt. eigenvalues --    0.77428   0.81525   0.82075   0.82300   0.82300
  Beta virt. eigenvalues --    0.84647   0.87365   0.91703   0.91704   0.91939
  Beta virt. eigenvalues --    0.94192   0.94462   0.94462   0.96463   0.96466
  Beta virt. eigenvalues --    0.98141   0.98144   0.98492   0.99399   0.99400
  Beta virt. eigenvalues --    1.02956   1.05060   1.06959   1.06965   1.09871
  Beta virt. eigenvalues --    1.09873   1.10991   1.12444   1.12445   1.14434
  Beta virt. eigenvalues --    1.14435   1.14507   1.17005   1.17010   1.17835
  Beta virt. eigenvalues --    1.18988   1.18989   1.28859   1.34666   1.36385
  Beta virt. eigenvalues --    1.36391   1.37386   1.37391   1.45584   1.45588
  Beta virt. eigenvalues --    1.46696   1.50887   1.50892   1.51217   1.51654
  Beta virt. eigenvalues --    1.54634   1.54981   1.54986   1.55287   1.55295
  Beta virt. eigenvalues --    1.59829   1.66640   1.75105   1.75112   1.76286
  Beta virt. eigenvalues --    1.76295   1.79881   1.82839   1.88467   1.90327
  Beta virt. eigenvalues --    1.91543   1.91556   1.92457   1.92468   2.03709
  Beta virt. eigenvalues --    2.03712   2.08331   2.08334   2.11564   2.14080
  Beta virt. eigenvalues --    2.73203   2.80771   2.81398   2.81401   2.84764
  Beta virt. eigenvalues --    2.84791   2.84793   3.02726   3.15805   3.15808
  Beta virt. eigenvalues --    3.20763   3.20766   3.28928   3.33344   3.33346
  Beta virt. eigenvalues --    3.33982   3.35333   3.35334   3.36964   3.42512
  Beta virt. eigenvalues --    3.43384   3.43385   3.47639   3.47642   3.51092
  Beta virt. eigenvalues --    3.54551   3.58226   3.58231   3.60459   3.60465
  Beta virt. eigenvalues --    3.74010   3.74017   3.74970   3.74976   3.80067
  Beta virt. eigenvalues --    3.80433   3.80985   3.82902   3.91999   3.92003
  Beta virt. eigenvalues --    3.93779   3.93782   4.17421   4.18518   4.18522
  Beta virt. eigenvalues --    4.20361   4.25227   4.25232   4.41918   4.49333
  Beta virt. eigenvalues --    4.49337   4.49699   4.49704   4.58614   4.62305
  Beta virt. eigenvalues --    4.62311   4.63519   4.65921   4.65929   4.66676
  Beta virt. eigenvalues --    4.85265   4.89189   4.92902   4.92930   4.93695
  Beta virt. eigenvalues --    4.93723   5.14442   5.14463   5.14828   5.16502
  Beta virt. eigenvalues --    5.16525   5.17870   5.55271   5.56761   5.63654
  Beta virt. eigenvalues --    5.69233   5.69274   5.69914   5.69954   5.70816
  Beta virt. eigenvalues --    6.25271   6.25294   6.26654   6.26680  15.85814
  Beta virt. eigenvalues --   15.88484
          Condensed to atoms (all electrons):
               1          2          3          4          5          6
     1  C    5.812042   0.363458   0.363421   0.363466   0.019572  -0.000662
     2  H    0.363458   0.314319   0.008155   0.008159  -0.000662  -0.000092
     3  H    0.363421   0.008155   0.314373   0.008159  -0.000660   0.000048
     4  H    0.363466   0.008159   0.008159   0.314428  -0.000659  -0.000092
     5  C    0.019572  -0.000662  -0.000660  -0.000659   5.812041   0.363422
     6  H   -0.000662  -0.000092   0.000048  -0.000092   0.363422   0.314333
     7  H   -0.000659  -0.000092  -0.000092   0.000048   0.363462   0.008155
     8  H   -0.000660   0.000048  -0.000092  -0.000092   0.363461   0.008155
               7          8
     1  C   -0.000659  -0.000660
     2  H   -0.000092   0.000048
     3  H   -0.000092  -0.000092
     4  H    0.000048  -0.000092
     5  C    0.363462   0.363461
     6  H    0.008155   0.008155
     7  H    0.314429   0.008162
     8  H    0.008162   0.314360
          Atomic-Atomic Spin Densities.
               1          2          3          4          5          6
     1  C   -0.928841  -0.017014  -0.017001  -0.016937   0.000000   0.001328
     2  H   -0.017014   0.030987  -0.004302  -0.004299  -0.001331   0.000000
     3  H   -0.017001  -0.004302   0.031006  -0.004304  -0.001325   0.000000
     4  H   -0.016937  -0.004299  -0.004304   0.031083  -0.001324   0.000000
     5  C    0.000000  -0.001331  -0.001325  -0.001324   0.928842   0.017027
     6  H    0.001328   0.000000   0.000000   0.000000   0.017027  -0.030990
     7  H    0.001324   0.000000  -0.000000  -0.000000   0.016936   0.004304
     8  H    0.001328  -0.000000  -0.000000  -0.000000   0.016989   0.004302
               7          8
     1  C    0.001324   0.001328
     2  H    0.000000  -0.000000
     3  H   -0.000000  -0.000000
     4  H   -0.000000  -0.000000
     5  C    0.016936   0.016989
     6  H    0.004304   0.004302
     7  H   -0.031083   0.004300
     8  H    0.004300  -0.031003
 Mulliken charges and spin densities:
               1          2
     1  C   -0.919979  -0.975814
     2  H    0.306707   0.004041
     3  H    0.306688   0.004074
     4  H    0.306583   0.004218
     5  C   -0.919978   0.975814
     6  H    0.306734  -0.004029
     7  H    0.306585  -0.004220
     8  H    0.306659  -0.004085
 Sum of Mulliken charges =  -0.00000  -0.00000
 Mulliken charges and spin densities with hydrogens summed into heavy atoms:
               1          2
     1  C    0.000000  -0.963480
     5  C   -0.000000   0.963480
 Electronic spatial extent (au):  <R**2>=            450.5109
 Charge=             -0.0000 electrons
 Dipole moment (field-independent basis, Debye):
    X=              0.0001    Y=             -0.0000    Z=              0.0000  Tot=              0.0001
 Quadrupole moment (field-independent basis, Debye-Ang):
   XX=            -14.6694   YY=            -13.8358   ZZ=            -14.8043
   XY=              0.5107   XZ=              0.1603   YZ=              0.3391
 Traceless Quadrupole moment (field-independent basis, Debye-Ang):
   XX=             -0.2329   YY=              0.6007   ZZ=             -0.3678
   XY=              0.5107   XZ=              0.1603   YZ=              0.3391
 Octapole moment (field-independent basis, Debye-Ang**2):
  XXX=             30.8542  YYY=             61.3069  ZZZ=             20.6843  XYY=              8.1936
  XXY=             20.9498  XXZ=              6.6069  XZZ=             10.2321  YZZ=             21.5500
  YYZ=              5.4394  XYZ=             -0.7123
 Hexadecapole moment (field-independent basis, Debye-Ang**3):
 XXXX=           -117.2998 YYYY=           -426.5701 ZZZZ=            -66.1207 XXXY=            -92.3437
 XXXZ=            -32.3407 YYYX=            -97.1739 YYYZ=            -64.5288 ZZZX=            -28.4958
 ZZZY=            -60.0176 XXYY=            -91.3033 XXZZ=            -33.0869 YYZZ=            -83.9339
 XXYZ=            -22.0156 YYXZ=             -8.7494 ZZXY=            -31.1692
 N-N= 3.102555210967D+01 E-N=-2.458454466538D+02  KE= 7.910254264693D+01
                          Isotropic Fermi Contact Couplings
        Atom                 a.u.       MegaHertz       Gauss      10(-4) cm-1
     1  C(13)             -0.17078     -95.99580     -34.25369     -32.02075
     2  H(1)               0.00714      15.96260       5.69585       5.32455
     3  H(1)               0.00714      15.95966       5.69480       5.32357
     4  H(1)               0.00715      15.97044       5.69865       5.32717
     5  C(13)              0.17078      95.99608      34.25379      32.02085
     6  H(1)              -0.00714     -15.95037      -5.69149      -5.32047
     7  H(1)              -0.00715     -15.97110      -5.69889      -5.32739
     8  H(1)              -0.00715     -15.97112      -5.69889      -5.32739
 --------------------------------------------------------
       Center         ----  Spin Dipole Couplings  ----
                      3XX-RR        3YY-RR        3ZZ-RR
 --------------------------------------------------------
     1   Atom        0.244414     -0.631068      0.386654
     2   Atom        0.053640      0.017856     -0.071496
     3   Atom       -0.051856      0.017858      0.033998
     4   Atom       -0.003925     -0.030075      0.034000
     5   Atom       -0.244411      0.631204     -0.386794
     6   Atom        0.051889     -0.017844     -0.034045
     7   Atom        0.003948      0.030067     -0.034015
     8   Atom       -0.053627     -0.017862      0.071489
 --------------------------------------------------------
                        XY            XZ            YZ
 --------------------------------------------------------
     1   Atom       -0.536425     -0.169168     -0.356371
     2   Atom       -0.021925      0.001173      0.002473
     3   Atom       -0.006207      0.045527     -0.021166
     4   Atom        0.032906     -0.045179      0.021886
     5   Atom        0.536485      0.169065      0.356133
     6   Atom        0.006177     -0.045507      0.021174
     7   Atom       -0.032909      0.045175     -0.021881
     8   Atom        0.021923     -0.001223     -0.002430
 --------------------------------------------------------


 ---------------------------------------------------------------------------------
              Anisotropic Spin Dipole Couplings in Principal Axis System
 ---------------------------------------------------------------------------------

       Atom             a.u.   MegaHertz   Gauss  10(-4) cm-1        Axes

              Baa    -0.9981  -133.932   -47.790   -44.675  0.4124  0.8688  0.2740
     1 C(13)  Bbb     0.4990    66.965    23.895    22.337  0.5295 -0.4733  0.7040
              Bcc     0.4990    66.967    23.896    22.338  0.7414 -0.1453 -0.6552
 
              Baa    -0.0716   -38.198   -13.630   -12.741 -0.0148 -0.0313  0.9994
     2 H(1)   Bbb     0.0075     4.025     1.436     1.343  0.4285  0.9029  0.0346
              Bcc     0.0640    34.172    12.194    11.399  0.9034 -0.4288 -0.0000
 
              Baa    -0.0716   -38.195   -13.629   -12.741  0.9155 -0.0314 -0.4010
     3 H(1)   Bbb     0.0076     4.029     1.438     1.344  0.1981  0.9029  0.3816
              Bcc     0.0640    34.167    12.191    11.397  0.3501 -0.4288  0.8328
 
              Baa    -0.0716   -38.194   -13.629   -12.740 -0.6031  0.6895 -0.4010
     4 H(1)   Bbb     0.0075     4.028     1.437     1.344  0.5743  0.7243  0.3816
              Bcc     0.0640    34.166    12.191    11.396 -0.5536  0.0001  0.8328
 
              Baa    -0.4991   -66.970   -23.896   -22.339  0.8755 -0.2950 -0.3827
     5 C(13)  Bbb    -0.4990   -66.962   -23.894   -22.336  0.2518 -0.3975  0.8824
              Bcc     0.9981   133.932    47.790    44.675  0.4124  0.8689  0.2738
 
              Baa    -0.0640   -34.172   -12.194   -11.399  0.3498 -0.4285  0.8331
     6 H(1)   Bbb    -0.0075    -4.027    -1.437    -1.343  0.1981  0.9030  0.3813
              Bcc     0.0716    38.199    13.630    12.742  0.9156 -0.0316 -0.4008
 
              Baa    -0.0640   -34.166   -12.191   -11.396 -0.5534  0.0001  0.8329
     7 H(1)   Bbb    -0.0076    -4.029    -1.438    -1.344  0.5743  0.7243  0.3815
              Bcc     0.0716    38.194    13.629    12.740 -0.6032  0.6895 -0.4009
 
              Baa    -0.0640   -34.167   -12.191   -11.397  0.9034 -0.4289  0.0005
     8 H(1)   Bbb    -0.0075    -4.027    -1.437    -1.343  0.4286  0.9028  0.0344
              Bcc     0.0716    38.193    13.628    12.740 -0.0152 -0.0309  0.9994
 

 ---------------------------------------------------------------------------------

 DipInt: DoE/N= T T RetVal/Mat= T F Init=T NMatP=  1 IDeriv=0 Min/MaxMlt=  1  1
 Entering OneElI...
 Multipole integrals L=1 to 1 MinM= 0 MaxM= 0.
 Requested accuracy = 0.1000D-12
 PrsmSu:  NPrtUS=   1 ThrOK=F IAlg=1 NPAlg=1 LenDen=           0.
 Prism:   IPart=     0 DynPar=F LinDyn=F Incr=          33.
 PRISM was handed   419154185 working-precision words and  3354 shell-pairs
 IPart=  0 NShTot=        3354 NBatch=          41 AvBLen=        81.8
 PrSmSu:  NxtVal=             34.
 Entering OneElI...
 Calculate overlap and kinetic energy integrals
    NBasis = 260  MinDer = 1  MaxDer = 1
 Requested accuracy = 0.1000D-12
 PrsmSu:  NPrtUS=  32 ThrOK=T IAlg=1 NPAlg=1 LenDen=           0.
 Prism:   IPart=     0 DynPar=F LinDyn=F Incr=           1.
 PRISM was handed    13042898 working-precision words and  3402 shell-pairs
 PRISM was handed    13042898 working-precision words and  3402 shell-pairs
 PRISM was handed    13042898 working-precision words and  3402 shell-pairs
 PRISM was handed    13042898 working-precision words and  3402 shell-pairs
 PRISM was handed    13042898 working-precision words and  3402 shell-pairs
 PRISM was handed    13042898 working-precision words and  3402 shell-pairs
 PRISM was handed    13042898 working-precision words and  3402 shell-pairs
 PRISM was handed    13042898 working-precision words and  3402 shell-pairs
 PRISM was handed    13042898 working-precision words and  3402 shell-pairs
 PRISM was handed    13042898 working-precision words and  3402 shell-pairs
 PRISM was handed    13042898 working-precision words and  3402 shell-pairs
 PRISM was handed    13042898 working-precision words and  3402 shell-pairs
 IPart=  0 NShTot=         135 NBatch=          42 AvBLen=         3.2
 PRISM was handed    13042898 working-precision words and  3402 shell-pairs
 PRISM was handed    13042898 working-precision words and  3402 shell-pairs
 PRISM was handed    13042898 working-precision words and  3402 shell-pairs
 PRISM was handed    13042898 working-precision words and  3402 shell-pairs
 PRISM was handed    13042898 working-precision words and  3402 shell-pairs
 PRISM was handed    13042898 working-precision words and  3402 shell-pairs
 PRISM was handed    13042898 working-precision words and  3402 shell-pairs
 PRISM was handed    13042898 working-precision words and  3402 shell-pairs
 PRISM was handed    13042898 working-precision words and  3402 shell-pairs
 PRISM was handed    13042898 working-precision words and  3402 shell-pairs
 PRISM was handed    13042898 working-precision words and  3402 shell-pairs
 PRISM was handed    13042898 working-precision words and  3402 shell-pairs
 PRISM was handed    13042898 working-precision words and  3402 shell-pairs
 PRISM was handed    13042898 working-precision words and  3402 shell-pairs
 PRISM was handed    13042898 working-precision words and  3402 shell-pairs
 PRISM was handed    13042898 working-precision words and  3402 shell-pairs
 PRISM was handed    13042898 working-precision words and  3402 shell-pairs
 PRISM was handed    13042898 working-precision words and  3402 shell-pairs
 PRISM was handed    13042898 working-precision words and  3402 shell-pairs
 PRISM was handed    13042898 working-precision words and  3402 shell-pairs
 IPart= 27 NShTot=          95 NBatch=          20 AvBLen=         4.8
 IPart=  7 NShTot=         116 NBatch=          27 AvBLen=         4.3
 IPart= 22 NShTot=          97 NBatch=          21 AvBLen=         4.6
 IPart= 14 NShTot=         103 NBatch=          21 AvBLen=         4.9
 IPart= 17 NShTot=         100 NBatch=          21 AvBLen=         4.8
 IPart= 26 NShTot=          95 NBatch=          20 AvBLen=         4.8
 IPart= 30 NShTot=          95 NBatch=          20 AvBLen=         4.8
 IPart= 21 NShTot=          99 NBatch=          21 AvBLen=         4.7
 IPart= 12 NShTot=         104 NBatch=          21 AvBLen=         5.0
 IPart=  4 NShTot=         123 NBatch=          33 AvBLen=         3.7
 IPart= 18 NShTot=          99 NBatch=          21 AvBLen=         4.7
 IPart=  9 NShTot=         112 NBatch=          24 AvBLen=         4.7
 IPart=  3 NShTot=         126 NBatch=          33 AvBLen=         3.8
 IPart= 13 NShTot=         104 NBatch=          21 AvBLen=         5.0
 IPart= 25 NShTot=          95 NBatch=          20 AvBLen=         4.8
 IPart= 28 NShTot=          95 NBatch=          20 AvBLen=         4.8
 IPart=  6 NShTot=         116 NBatch=          27 AvBLen=         4.3
 IPart= 29 NShTot=          95 NBatch=          20 AvBLen=         4.8
 IPart= 16 NShTot=         100 NBatch=          21 AvBLen=         4.8
 IPart= 23 NShTot=          97 NBatch=          21 AvBLen=         4.6
 IPart= 31 NShTot=          95 NBatch=          20 AvBLen=         4.8
 IPart= 24 NShTot=          95 NBatch=          20 AvBLen=         4.8
 IPart=  2 NShTot=         126 NBatch=          33 AvBLen=         3.8
 IPart=  8 NShTot=         112 NBatch=          24 AvBLen=         4.7
 IPart= 11 NShTot=         108 NBatch=          23 AvBLen=         4.7
 IPart= 10 NShTot=         109 NBatch=          23 AvBLen=         4.7
 IPart= 19 NShTot=          99 NBatch=          21 AvBLen=         4.7
 IPart=  1 NShTot=         133 NBatch=          40 AvBLen=         3.3
 IPart=  5 NShTot=         123 NBatch=          33 AvBLen=         3.7
 IPart= 15 NShTot=         102 NBatch=          21 AvBLen=         4.9
 IPart= 20 NShTot=          99 NBatch=          21 AvBLen=         4.7
 PrSmSu:  NxtVal=             33.
 Entering OneElI...
 Calculate potential energy integrals
    NBasis = 260  MinDer = 1  MaxDer = 1
 Requested accuracy = 0.1000D-12
 PrsmSu:  NPrtUS=  32 ThrOK=T IAlg=1 NPAlg=1 LenDen=           0.
 Prism:   IPart=     0 DynPar=F LinDyn=F Incr=           8.
 PRISM was handed    13049474 working-precision words and  3259 shell-pairs
 PRISM was handed    13049474 working-precision words and  3259 shell-pairs
 PRISM was handed    13049474 working-precision words and  3259 shell-pairs
 PRISM was handed    13049474 working-precision words and  3259 shell-pairs
 PRISM was handed    13049474 working-precision words and  3259 shell-pairs
 PRISM was handed    13049474 working-precision words and  3259 shell-pairs
 PRISM was handed    13049474 working-precision words and  3259 shell-pairs
 PRISM was handed    13049474 working-precision words and  3259 shell-pairs
 PRISM was handed    13049474 working-precision words and  3259 shell-pairs
 PRISM was handed    13049474 working-precision words and  3259 shell-pairs
 PRISM was handed    13049474 working-precision words and  3259 shell-pairs
 PRISM was handed    13049474 working-precision words and  3259 shell-pairs
 PRISM was handed    13049474 working-precision words and  3259 shell-pairs
 PRISM was handed    13049474 working-precision words and  3259 shell-pairs
 PRISM was handed    13049474 working-precision words and  3259 shell-pairs
 PRISM was handed    13049474 working-precision words and  3259 shell-pairs
 PRISM was handed    13049474 working-precision words and  3259 shell-pairs
 PRISM was handed    13049474 working-precision words and  3259 shell-pairs
 PRISM was handed    13049474 working-precision words and  3259 shell-pairs
 PRISM was handed    13049474 working-precision words and  3259 shell-pairs
 PRISM was handed    13049474 working-precision words and  3259 shell-pairs
 PRISM was handed    13049474 working-precision words and  3259 shell-pairs
 PRISM was handed    13049474 working-precision words and  3259 shell-pairs
 PRISM was handed    13049474 working-precision words and  3259 shell-pairs
 PRISM was handed    13049474 working-precision words and  3259 shell-pairs
 PRISM was handed    13049474 working-precision words and  3259 shell-pairs
 PRISM was handed    13049474 working-precision words and  3259 shell-pairs
 PRISM was handed    13049474 working-precision words and  3259 shell-pairs
 PRISM was handed    13049474 working-precision words and  3259 shell-pairs
 PRISM was handed    13049474 working-precision words and  3259 shell-pairs
 PRISM was handed    13049474 working-precision words and  3259 shell-pairs
 PRISM was handed    13049474 working-precision words and  3259 shell-pairs
 IPart= 24 NShTot=         752 NBatch=          94 AvBLen=         8.0
 IPart= 14 NShTot=         792 NBatch=          99 AvBLen=         8.0
 IPart= 29 NShTot=         728 NBatch=          91 AvBLen=         8.0
 IPart= 19 NShTot=         776 NBatch=          97 AvBLen=         8.0
 IPart= 15 NShTot=         792 NBatch=          99 AvBLen=         8.0
 IPart= 31 NShTot=         728 NBatch=          91 AvBLen=         8.0
 IPart= 28 NShTot=         728 NBatch=          91 AvBLen=         8.0
 IPart= 20 NShTot=         760 NBatch=          95 AvBLen=         8.0
 IPart= 10 NShTot=         808 NBatch=         101 AvBLen=         8.0
 IPart=  2 NShTot=         944 NBatch=         118 AvBLen=         8.0
 IPart=  5 NShTot=         936 NBatch=         117 AvBLen=         8.0
 IPart= 23 NShTot=         760 NBatch=          95 AvBLen=         8.0
 IPart=  8 NShTot=         840 NBatch=         105 AvBLen=         8.0
 IPart= 18 NShTot=         776 NBatch=          97 AvBLen=         8.0
 IPart= 26 NShTot=         752 NBatch=          94 AvBLen=         8.0
 IPart= 11 NShTot=         808 NBatch=         101 AvBLen=         8.0
 IPart=  7 NShTot=         864 NBatch=         108 AvBLen=         8.0
 IPart=  0 NShTot=        1016 NBatch=         127 AvBLen=         8.0
 IPart=  1 NShTot=        1008 NBatch=         126 AvBLen=         8.0
 IPart= 12 NShTot=         808 NBatch=         101 AvBLen=         8.0
 IPart= 30 NShTot=         728 NBatch=          91 AvBLen=         8.0
 IPart=  9 NShTot=         840 NBatch=         105 AvBLen=         8.0
 IPart= 21 NShTot=         760 NBatch=          95 AvBLen=         8.0
 IPart= 22 NShTot=         760 NBatch=          95 AvBLen=         8.0
 IPart= 27 NShTot=         752 NBatch=          94 AvBLen=         8.0
 IPart= 13 NShTot=         808 NBatch=         101 AvBLen=         8.0
 IPart= 17 NShTot=         776 NBatch=          97 AvBLen=         8.0
 IPart= 25 NShTot=         752 NBatch=          94 AvBLen=         8.0
 IPart= 16 NShTot=         776 NBatch=          97 AvBLen=         8.0
 IPart=  4 NShTot=         936 NBatch=         117 AvBLen=         8.0
 IPart=  3 NShTot=         944 NBatch=         118 AvBLen=         8.0
 IPart=  6 NShTot=         864 NBatch=         108 AvBLen=         8.0
 PrSmSu:  NxtVal=            257.
 l701 out
 I=    0 X=   2.536218688753D-05 Y=  -1.348762071363D-05 Z=   3.806009102547D-06
 I=    1 X=  -4.295205812445D-01 Y=  -9.052267559523D-01 Z=  -2.846069010741D-01
 I=    2 X=   8.414782153427D-02 Y=   1.771795847467D-01 Z=   2.789093032518D+00
 I=    3 X=   2.603333712442D+00 Y=   1.771750130470D-01 Z=  -1.003378894265D+00
 I=    4 X=  -1.508742744324D+00 Y=   2.129100543774D+00 Z=  -1.003505677363D+00
 I=    5 X=   4.284432410161D-01 Y=   9.054068052739D-01 Z=   2.856684749460D-01
 I=    6 X=  -2.603823797225D+00 Y=  -1.765555213085D-01 Z=   1.002555190515D+00
 I=    7 X=   1.509234750875D+00 Y=  -2.128902089148D+00 Z=   1.003133113173D+00
 I=    8 X=  -8.307240307224D-02 Y=  -1.781775804323D-01 Z=  -2.788958338451D+00
 ICntrl=      2127.
 Calling FoFJK, ICntrl=      2127 FMM=F ISym2X=0 I1Cent= 0 IOpClX= 1 NMat=1 NMatS=1 NMatT=0.
 FoFJK:  IHMeth= 1 ICntrl=    2127 DoSepK=T KAlg= 0 I1Cent=   0 FoldK=F
 IRaf=         1 NMat=   1 IRICut=       1 DoRegI=T DoRafI=F ISym2E= 0.
 FoFCou: FMM=F IPFlag=           0 FMFlag=      100000 FMFlg1=         800
         NFxFlg=           0 DoJE=F BraDBF=F KetDBF=F FulRan=T
         wScrn=  0.000000 ICntrl=    2527 IOpCl=  0 I1Cent=           0 NGrid=           0
         NMat0=    1 NMatS0=      1 NMatT0=    0 NMatD0=    1 NMtDS0=    0 NMtDT0=    0
 Symmetry not used in FoFCou.
 FoFCou:  KetSym=F NOpSet=  1 NOpAb=1 NOp=  1.
 FoFCou:  CnvScl= 1.00D+00 Thresh= 1.00D-10 IAcrcy=      10.
 PrismS was handed   419084426 working-precision words and  3319 shell-pairs
 FoFCou: LinMIO=F DoNuc=F BraDBF=F KetDBF=F HaveP=T PDBF=F HaveZ=T HaveW=F
         NIJTC =      10 NIJTAt=       0 NIJTCD=       0 NIJTT =      10
         IJTBeg=       1 IJTEnd=      10 KLTBeg=       1 KLTEnd=      10
         IPTBeg=       1 IPTEnd=      10 IPTBCv=       1 IPTECv=      10
         IZTBeg=       1 IZTEnd=      10 IZTBCv=       1 IZTECv=      10
         IWTBeg=      11 IWTEnd=      10 IWTBCv=      11 IWTECv=      10
         INTBeg=       1 INTEnd=       0 IFTBCv=       1 IFTECv=      10
 NCel replicated for PrismC:     1
 CoulSu:  IncDef=  1024 NBBP=        5509540 NTPThr=   100 NPartT=   32 Incr=        1024 LDynOK=F.
 CoulSu:  NPrtUS=  32 ThrOK=T IAlg=1 NPAlg=1 LenDen=           0 LWGrdD=           0 DoCopy=F.
 Enter PrismC: JobTyp=21 DoJE=F Cont=F.
 PrismC:  IPart=     0 DynPar=T LinDyn=F Incr=        1024 UseFst=F UseS4=T IGathr=2.
 PrismC was handed    13046391 working-precision words and  3319 shell-pairs
 Enter PrismC: JobTyp=21 DoJE=F Cont=F.
 Enter PrismC: JobTyp=21 DoJE=F Cont=F.
 Enter PrismC: JobTyp=21 DoJE=F Cont=F.
 Enter PrismC: JobTyp=21 DoJE=F Cont=F.
 Enter PrismC: JobTyp=21 DoJE=F Cont=F.
 Enter PrismC: JobTyp=21 DoJE=F Cont=F.
 Enter PrismC: JobTyp=21 DoJE=F Cont=F.
 Enter PrismC: JobTyp=21 DoJE=F Cont=F.
 Enter PrismC: JobTyp=21 DoJE=F Cont=F.
 Enter PrismC: JobTyp=21 DoJE=F Cont=F.
 Enter PrismC: JobTyp=21 DoJE=F Cont=F.
 Enter PrismC: JobTyp=21 DoJE=F Cont=F.
 Enter PrismC: JobTyp=21 DoJE=F Cont=F.
 Enter PrismC: JobTyp=21 DoJE=F Cont=F.
 Enter PrismC: JobTyp=21 DoJE=F Cont=F.
 Enter PrismC: JobTyp=21 DoJE=F Cont=F.
 Enter PrismC: JobTyp=21 DoJE=F Cont=F.
 Enter PrismC: JobTyp=21 DoJE=F Cont=F.
 Enter PrismC: JobTyp=21 DoJE=F Cont=F.
 Enter PrismC: JobTyp=21 DoJE=F Cont=F.
 Enter PrismC: JobTyp=21 DoJE=F Cont=F.
 Enter PrismC: JobTyp=21 DoJE=F Cont=F.
 PrismC was handed    13046391 working-precision words and  3319 shell-pairs
 Enter PrismC: JobTyp=21 DoJE=F Cont=F.
 PrismC was handed    13046391 working-precision words and  3319 shell-pairs
 Enter PrismC: JobTyp=21 DoJE=F Cont=F.
 PrismC was handed    13046391 working-precision words and  3319 shell-pairs
 Enter PrismC: JobTyp=21 DoJE=F Cont=F.
 PrismC was handed    13046391 working-precision words and  3319 shell-pairs
 Enter PrismC: JobTyp=21 DoJE=F Cont=F.
 PrismC was handed    13046391 working-precision words and  3319 shell-pairs
 Enter PrismC: JobTyp=21 DoJE=F Cont=F.
 PrismC was handed    13046391 working-precision words and  3319 shell-pairs
 Enter PrismC: JobTyp=21 DoJE=F Cont=F.
 PrismC was handed    13046391 working-precision words and  3319 shell-pairs
 Enter PrismC: JobTyp=21 DoJE=F Cont=F.
 PrismC was handed    13046391 working-precision words and  3319 shell-pairs
 Enter PrismC: JobTyp=21 DoJE=F Cont=F.
 PrismC was handed    13046391 working-precision words and  3319 shell-pairs
 Enter PrismC: JobTyp=21 DoJE=F Cont=F.
 PrismC was handed    13046391 working-precision words and  3319 shell-pairs
 PrismC was handed    13046391 working-precision words and  3319 shell-pairs
 PrismC was handed    13046391 working-precision words and  3319 shell-pairs
 PrismC was handed    13046391 working-precision words and  3319 shell-pairs
 PrismC was handed    13046391 working-precision words and  3319 shell-pairs
 PrismC was handed    13046391 working-precision words and  3319 shell-pairs
 PrismC was handed    13046391 working-precision words and  3319 shell-pairs
 PrismC was handed    13046391 working-precision words and  3319 shell-pairs
 PrismC was handed    13046391 working-precision words and  3319 shell-pairs
 PrismC was handed    13046391 working-precision words and  3319 shell-pairs
 PrismC was handed    13046391 working-precision words and  3319 shell-pairs
 PrismC was handed    13046391 working-precision words and  3319 shell-pairs
 PrismC was handed    13046391 working-precision words and  3319 shell-pairs
 PrismC was handed    13046391 working-precision words and  3319 shell-pairs
 PrismC was handed    13046391 working-precision words and  3319 shell-pairs
 PrismC was handed    13046391 working-precision words and  3319 shell-pairs
 PrismC was handed    13046391 working-precision words and  3319 shell-pairs
 PrismC was handed    13046391 working-precision words and  3319 shell-pairs
 PrismC was handed    13046391 working-precision words and  3319 shell-pairs
 PrismC was handed    13046391 working-precision words and  3319 shell-pairs
 PrismC was handed    13046391 working-precision words and  3319 shell-pairs
 PrismC was handed    13046391 working-precision words and  3319 shell-pairs
 IPart= 30 NShTot=      163060 NShNF=      163060 NShFF=           0 NBatch=        1258 AvBLen=       129.6
 IPart= 13 NShTot=      139989 NShNF=      139989 NShFF=           0 NBatch=        1034 AvBLen=       135.4
 IPart=  5 NShTot=      149797 NShNF=      149797 NShFF=           0 NBatch=        1196 AvBLen=       125.2
 IPart= 28 NShTot=      146710 NShNF=      146710 NShFF=           0 NBatch=        1313 AvBLen=       111.7
 IPart= 20 NShTot=      147744 NShNF=      147744 NShFF=           0 NBatch=        1324 AvBLen=       111.6
 IPart= 19 NShTot=      129849 NShNF=      129849 NShFF=           0 NBatch=        1273 AvBLen=       102.0
 IPart= 11 NShTot=      153075 NShNF=      153075 NShFF=           0 NBatch=        1322 AvBLen=       115.8
 IPart= 16 NShTot=      152560 NShNF=      152560 NShFF=           0 NBatch=        1291 AvBLen=       118.2
 IPart= 12 NShTot=      147677 NShNF=      147677 NShFF=           0 NBatch=        1226 AvBLen=       120.5
 IPart= 31 NShTot=      144160 NShNF=      144160 NShFF=           0 NBatch=        1276 AvBLen=       113.0
 IPart=  8 NShTot=      143961 NShNF=      143961 NShFF=           0 NBatch=        1316 AvBLen=       109.4
 IPart= 17 NShTot=      142686 NShNF=      142686 NShFF=           0 NBatch=        1229 AvBLen=       116.1
 IPart= 29 NShTot=      147906 NShNF=      147906 NShFF=           0 NBatch=        1224 AvBLen=       120.8
 IPart=  0 NShTot=      145818 NShNF=      145818 NShFF=           0 NBatch=        1013 AvBLen=       143.9
 IPart= 25 NShTot=      134858 NShNF=      134858 NShFF=           0 NBatch=        1255 AvBLen=       107.5
 IPart=  9 NShTot=      146740 NShNF=      146740 NShFF=           0 NBatch=        1088 AvBLen=       134.9
 IPart= 27 NShTot=      142530 NShNF=      142530 NShFF=           0 NBatch=        1253 AvBLen=       113.8
 IPart= 22 NShTot=      147281 NShNF=      147281 NShFF=           0 NBatch=        1274 AvBLen=       115.6
 IPart= 18 NShTot=      149277 NShNF=      149277 NShFF=           0 NBatch=        1308 AvBLen=       114.1
 IPart=  2 NShTot=      139597 NShNF=      139597 NShFF=           0 NBatch=        1257 AvBLen=       111.1
 IPart= 10 NShTot=      143984 NShNF=      143984 NShFF=           0 NBatch=        1278 AvBLen=       112.7
 IPart= 15 NShTot=      145592 NShNF=      145592 NShFF=           0 NBatch=        1197 AvBLen=       121.6
 IPart= 21 NShTot=      134923 NShNF=      134923 NShFF=           0 NBatch=        1266 AvBLen=       106.6
 IPart=  1 NShTot=      158538 NShNF=      158538 NShFF=           0 NBatch=        1162 AvBLen=       136.4
 IPart= 24 NShTot=      164900 NShNF=      164900 NShFF=           0 NBatch=        1247 AvBLen=       132.2
 IPart=  7 NShTot=      154100 NShNF=      154100 NShFF=           0 NBatch=        1248 AvBLen=       123.5
 IPart= 14 NShTot=      138856 NShNF=      138856 NShFF=           0 NBatch=        1246 AvBLen=       111.4
 IPart=  4 NShTot=      126277 NShNF=      126277 NShFF=           0 NBatch=        1204 AvBLen=       104.9
 IPart=  3 NShTot=      160594 NShNF=      160594 NShFF=           0 NBatch=        1081 AvBLen=       148.6
 IPart= 26 NShTot=      148212 NShNF=      148212 NShFF=           0 NBatch=        1309 AvBLen=       113.2
 IPart=  6 NShTot=      135428 NShNF=      135428 NShFF=           0 NBatch=        1329 AvBLen=       101.9
 IPart= 23 NShTot=      143836 NShNF=      143836 NShFF=           0 NBatch=        1239 AvBLen=       116.1
 CoulSu:  NxtVal=        6061057.
 FoFCou: FMM=F IPFlag=           0 FMFlag=      100000 FMFlg1=         800
         NFxFlg=           0 DoJE=F BraDBF=F KetDBF=F FulRan=T
         wScrn=  0.000000 ICntrl=    2127 IOpCl=  1 I1Cent=           0 NGrid=           0
         NMat0=    1 NMatS0=      0 NMatT0=    1 NMatD0=    1 NMtDS0=    0 NMtDT0=    0
         CW=    0.222036    0.777964
         WU=    0.000000   12.500000
 Symmetry not used in FoFCou.
 FoFCou:  KetSym=F NOpSet=  1 NOpAb=1 NOp=  1.
 FoFCou:  CnvScl= 1.00D+00 Thresh= 1.00D-10 IAcrcy=      10.
 PrismS was handed   419081079 working-precision words and  3319 shell-pairs
 FoFCou: LinMIO=F DoNuc=F BraDBF=F KetDBF=F HaveP=T PDBF=F HaveZ=T HaveW=F
         NIJTC =      10 NIJTAt=       0 NIJTCD=       0 NIJTT =      10
         IJTBeg=       1 IJTEnd=      10 KLTBeg=       1 KLTEnd=      10
         IPTBeg=       1 IPTEnd=      10 IPTBCv=       1 IPTECv=      10
         IZTBeg=       1 IZTEnd=      10 IZTBCv=       1 IZTECv=      10
         IWTBeg=      11 IWTEnd=      10 IWTBCv=      11 IWTECv=      10
         INTBeg=       1 INTEnd=       0 IFTBCv=       1 IFTECv=      10
 NCel replicated for PrismC:     1
 CoulSu:  IncDef=  1024 NBBP=        5509540 NTPThr=   100 NPartT=   32 Incr=        1024 LDynOK=F.
 CoulSu:  NPrtUS=  32 ThrOK=T IAlg=1 NPAlg=1 LenDen=           0 LWGrdD=           0 DoCopy=F.
 Enter PrismC: JobTyp=21 DoJE=F Cont=F.
 Linear combination for Coulomb/exchange, wScrn=  0.000000
 CW=    0.222036    0.777964
 WU=    0.000000   12.500000
 PrismC:  IPart=     0 DynPar=T LinDyn=F Incr=        1024 UseFst=F UseS4=T IGathr=2.
 PrismC was handed    13046287 working-precision words and  3319 shell-pairs
 Enter PrismC: JobTyp=21 DoJE=F Cont=F.
 Enter PrismC: JobTyp=21 DoJE=F Cont=F.
 Linear combination for Coulomb/exchange, wScrn=  0.000000
 CW=    0.222036    0.777964
 WU=    0.000000   12.500000
 Enter PrismC: JobTyp=21 DoJE=F Cont=F.
 Linear combination for Coulomb/exchange, wScrn=  0.000000
 CW=    0.222036    0.777964
 WU=    0.000000   12.500000
 Enter PrismC: JobTyp=21 DoJE=F Cont=F.
 Linear combination for Coulomb/exchange, wScrn=  0.000000
 CW=    0.222036    0.777964
 WU=    0.000000   12.500000
 Enter PrismC: JobTyp=21 DoJE=F Cont=F.
 Linear combination for Coulomb/exchange, wScrn=  0.000000
 CW=    0.222036    0.777964
 WU=    0.000000   12.500000
 Enter PrismC: JobTyp=21 DoJE=F Cont=F.
 Linear combination for Coulomb/exchange, wScrn=  0.000000
 CW=    0.222036    0.777964
 WU=    0.000000   12.500000
 Enter PrismC: JobTyp=21 DoJE=F Cont=F.
 Linear combination for Coulomb/exchange, wScrn=  0.000000
 CW=    0.222036    0.777964
 WU=    0.000000   12.500000
 Enter PrismC: JobTyp=21 DoJE=F Cont=F.
 Linear combination for Coulomb/exchange, wScrn=  0.000000
 CW=    0.222036    0.777964
 WU=    0.000000   12.500000
 Enter PrismC: JobTyp=21 DoJE=F Cont=F.
 Linear combination for Coulomb/exchange, wScrn=  0.000000
 CW=    0.222036    0.777964
 WU=    0.000000   12.500000
 Enter PrismC: JobTyp=21 DoJE=F Cont=F.
 Linear combination for Coulomb/exchange, wScrn=  0.000000
 CW=    0.222036    0.777964
 WU=    0.000000   12.500000
 Enter PrismC: JobTyp=21 DoJE=F Cont=F.
 Linear combination for Coulomb/exchange, wScrn=  0.000000
 CW=    0.222036    0.777964
 WU=    0.000000   12.500000
 PrismC was handed    13046287 working-precision words and  3319 shell-pairs
 Enter PrismC: JobTyp=21 DoJE=F Cont=F.
 Linear combination for Coulomb/exchange, wScrn=  0.000000
 CW=    0.222036    0.777964
 WU=    0.000000   12.500000
 PrismC was handed    13046287 working-precision words and  3319 shell-pairs
 Enter PrismC: JobTyp=21 DoJE=F Cont=F.
 Enter PrismC: JobTyp=21 DoJE=F Cont=F.
 Linear combination for Coulomb/exchange, wScrn=  0.000000
 CW=    0.222036    0.777964
 WU=    0.000000   12.500000
 PrismC was handed    13046287 working-precision words and  3319 shell-pairs
 PrismC was handed    13046287 working-precision words and  3319 shell-pairs
 Enter PrismC: JobTyp=21 DoJE=F Cont=F.
 Linear combination for Coulomb/exchange, wScrn=  0.000000
 CW=    0.222036    0.777964
 WU=    0.000000   12.500000
 Linear combination for Coulomb/exchange, wScrn=  0.000000
 CW=    0.222036    0.777964
 WU=    0.000000   12.500000
 Enter PrismC: JobTyp=21 DoJE=F Cont=F.
 Linear combination for Coulomb/exchange, wScrn=  0.000000
 CW=    0.222036    0.777964
 Enter PrismC: JobTyp=21 DoJE=F Cont=F.
 Linear combination for Coulomb/exchange, wScrn=  0.000000
 CW=    0.222036    0.777964
 WU=    0.000000   12.500000
 PrismC was handed    13046287 working-precision words and  3319 shell-pairs
 Enter PrismC: JobTyp=21 DoJE=F Cont=F.
 Linear combination for Coulomb/exchange, wScrn=  0.000000
 CW=    0.222036    0.777964
 WU=    0.000000   12.500000
 PrismC was handed    13046287 working-precision words and  3319 shell-pairs
 Enter PrismC: JobTyp=21 DoJE=F Cont=F.
 Linear combination for Coulomb/exchange, wScrn=  0.000000
 CW=    0.222036    0.777964
 WU=    0.000000   12.500000
 PrismC was handed    13046287 working-precision words and  3319 shell-pairs
 Enter PrismC: JobTyp=21 DoJE=F Cont=F.
 Linear combination for Coulomb/exchange, wScrn=  0.000000
 CW=    0.222036    0.777964
 WU=    0.000000   12.500000
 PrismC was handed    13046287 working-precision words and  3319 shell-pairs
 PrismC was handed    13046287 working-precision words and  3319 shell-pairs
 Enter PrismC: JobTyp=21 DoJE=F Cont=F.
 Linear combination for Coulomb/exchange, wScrn=  0.000000
 CW=    0.222036    0.777964
 WU=    0.000000   12.500000
 WU=    0.000000   12.500000
 PrismC was handed    13046287 working-precision words and  3319 shell-pairs
 Enter PrismC: JobTyp=21 DoJE=F Cont=F.
 Linear combination for Coulomb/exchange, wScrn=  0.000000
 CW=    0.222036    0.777964
 WU=    0.000000   12.500000
 PrismC was handed    13046287 working-precision words and  3319 shell-pairs
 Enter PrismC: JobTyp=21 DoJE=F Cont=F.
 Enter PrismC: JobTyp=21 DoJE=F Cont=F.
 Linear combination for Coulomb/exchange, wScrn=  0.000000
 CW=    0.222036    0.777964
 WU=    0.000000   12.500000
 Linear combination for Coulomb/exchange, wScrn=  0.000000
 CW=    0.222036    0.777964
 WU=    0.000000   12.500000
 Enter PrismC: JobTyp=21 DoJE=F Cont=F.
 Linear combination for Coulomb/exchange, wScrn=  0.000000
 CW=    0.222036    0.777964
 WU=    0.000000   12.500000
 PrismC was handed    13046287 working-precision words and  3319 shell-pairs
 Enter PrismC: JobTyp=21 DoJE=F Cont=F.
 Linear combination for Coulomb/exchange, wScrn=  0.000000
 CW=    0.222036    0.777964
 WU=    0.000000   12.500000
 Enter PrismC: JobTyp=21 DoJE=F Cont=F.
 Linear combination for Coulomb/exchange, wScrn=  0.000000
 CW=    0.222036    0.777964
 PrismC was handed    13046287 working-precision words and  3319 shell-pairs
 PrismC was handed    13046287 working-precision words and  3319 shell-pairs
 PrismC was handed    13046287 working-precision words and  3319 shell-pairs
 Enter PrismC: JobTyp=21 DoJE=F Cont=F.
 Linear combination for Coulomb/exchange, wScrn=  0.000000
 CW=    0.222036    0.777964
 WU=    0.000000   12.500000
 PrismC was handed    13046287 working-precision words and  3319 shell-pairs
 PrismC was handed    13046287 working-precision words and  3319 shell-pairs
 Enter PrismC: JobTyp=21 DoJE=F Cont=F.
 Linear combination for Coulomb/exchange, wScrn=  0.000000
 CW=    0.222036    0.777964
 WU=    0.000000   12.500000
 PrismC was handed    13046287 working-precision words and  3319 shell-pairs
 Enter PrismC: JobTyp=21 DoJE=F Cont=F.
 PrismC was handed    13046287 working-precision words and  3319 shell-pairs
 PrismC was handed    13046287 working-precision words and  3319 shell-pairs
 WU=    0.000000   12.500000
 PrismC was handed    13046287 working-precision words and  3319 shell-pairs
 PrismC was handed    13046287 working-precision words and  3319 shell-pairs
 PrismC was handed    13046287 working-precision words and  3319 shell-pairs
 Enter PrismC: JobTyp=21 DoJE=F Cont=F.
 Linear combination for Coulomb/exchange, wScrn=  0.000000
 CW=    0.222036    0.777964
 WU=    0.000000   12.500000
 PrismC was handed    13046287 working-precision words and  3319 shell-pairs
 PrismC was handed    13046287 working-precision words and  3319 shell-pairs
 Linear combination for Coulomb/exchange, wScrn=  0.000000
 CW=    0.222036    0.777964
 WU=    0.000000   12.500000
 PrismC was handed    13046287 working-precision words and  3319 shell-pairs
 PrismC was handed    13046287 working-precision words and  3319 shell-pairs
 PrismC was handed    13046287 working-precision words and  3319 shell-pairs
 Linear combination for Coulomb/exchange, wScrn=  0.000000
 CW=    0.222036    0.777964
 WU=    0.000000   12.500000
 PrismC was handed    13046287 working-precision words and  3319 shell-pairs
 PrismC was handed    13046287 working-precision words and  3319 shell-pairs
 PrismC was handed    13046287 working-precision words and  3319 shell-pairs
 IPart= 13 NShTot=      159443 NShNF=      159443 NShFF=           0 NBatch=        1579 AvBLen=       101.0
 IPart=  9 NShTot=      150404 NShNF=      150404 NShFF=           0 NBatch=        1676 AvBLen=        89.7
 IPart=  3 NShTot=      159709 NShNF=      159709 NShFF=           0 NBatch=        1582 AvBLen=       101.0
 IPart= 27 NShTot=      147380 NShNF=      147380 NShFF=           0 NBatch=        1565 AvBLen=        94.2
 IPart= 10 NShTot=      144168 NShNF=      144168 NShFF=           0 NBatch=        1528 AvBLen=        94.4
 IPart= 28 NShTot=      145893 NShNF=      145893 NShFF=           0 NBatch=        1547 AvBLen=        94.3
 IPart= 17 NShTot=      152332 NShNF=      152332 NShFF=           0 NBatch=        1553 AvBLen=        98.1
 IPart= 22 NShTot=      143590 NShNF=      143590 NShFF=           0 NBatch=        1572 AvBLen=        91.3
 IPart= 25 NShTot=      154770 NShNF=      154770 NShFF=           0 NBatch=        1512 AvBLen=       102.4
 IPart=  7 NShTot=      149270 NShNF=      149270 NShFF=           0 NBatch=        1560 AvBLen=        95.7
 IPart= 24 NShTot=      159574 NShNF=      159574 NShFF=           0 NBatch=        1582 AvBLen=       100.9
 IPart=  6 NShTot=      129264 NShNF=      129264 NShFF=           0 NBatch=        1430 AvBLen=        90.4
 IPart=  4 NShTot=      134334 NShNF=      134334 NShFF=           0 NBatch=        1597 AvBLen=        84.1
 IPart= 11 NShTot=      140778 NShNF=      140778 NShFF=           0 NBatch=        1499 AvBLen=        93.9
 IPart= 30 NShTot=      162299 NShNF=      162299 NShFF=           0 NBatch=        1588 AvBLen=       102.2
 IPart=  0 NShTot=      152318 NShNF=      152318 NShFF=           0 NBatch=        1335 AvBLen=       114.1
 IPart=  1 NShTot=      161906 NShNF=      161906 NShFF=           0 NBatch=        1635 AvBLen=        99.0
 IPart= 19 NShTot=      153117 NShNF=      153117 NShFF=           0 NBatch=        1672 AvBLen=        91.6
 IPart=  8 NShTot=      151556 NShNF=      151556 NShFF=           0 NBatch=        1550 AvBLen=        97.8
 IPart= 29 NShTot=      141217 NShNF=      141217 NShFF=           0 NBatch=        1478 AvBLen=        95.5
 IPart= 31 NShTot=      150374 NShNF=      150374 NShFF=           0 NBatch=        1477 AvBLen=       101.8
 IPart= 12 NShTot=      146494 NShNF=      146494 NShFF=           0 NBatch=        1468 AvBLen=        99.8
 IPart= 26 NShTot=      161213 NShNF=      161213 NShFF=           0 NBatch=        1610 AvBLen=       100.1
 IPart= 21 NShTot=      143547 NShNF=      143547 NShFF=           0 NBatch=        1624 AvBLen=        88.4
 IPart= 18 NShTot=      148791 NShNF=      148791 NShFF=           0 NBatch=        1559 AvBLen=        95.4
 IPart= 15 NShTot=      137955 NShNF=      137955 NShFF=           0 NBatch=        1494 AvBLen=        92.3
 IPart= 20 NShTot=      142262 NShNF=      142262 NShFF=           0 NBatch=        1598 AvBLen=        89.0
 IPart=  2 NShTot=      132332 NShNF=      132332 NShFF=           0 NBatch=        1522 AvBLen=        86.9
 IPart= 14 NShTot=      152119 NShNF=      152119 NShFF=           0 NBatch=        1471 AvBLen=       103.4
 IPart= 16 NShTot=      146991 NShNF=      146991 NShFF=           0 NBatch=        1649 AvBLen=        89.1
 IPart= 23 NShTot=      134063 NShNF=      134063 NShFF=           0 NBatch=        1346 AvBLen=        99.6
 IPart=  5 NShTot=      147257 NShNF=      147257 NShFF=           0 NBatch=        1601 AvBLen=        92.0
 CoulSu:  NxtVal=        6061057.
 ReadGW:  IGet=0 IStart=           1 Next=           1 LGW=           0.
 Remaining memory in FofDFT      399.87 Mw
 CkSvGd:  ISavGI=        -1 IRadAn=       5 IRASav=       5 ISavGd=        -1.
 CalDSu:  NPrtUS=  32 ThrOK=T IAlg=1 NPAlg=2 DoDPD=T LenP=       33930 LenD1P=             0.
 IPart=  0 IRanGd=          0 ScrnBf=T ScrnGd=T RCrit=4.00D+00 DoMicB=T.
 IPart=  2         6118 of         7170 points in      10 batches and       30 microbatches, Max-NSigAt=       8 Max-NSgAt2=       8
 IPart= 17         5739 of         6486 points in       8 batches and       15 microbatches, Max-NSigAt=       8 Max-NSgAt2=       8
 IPart= 29         5153 of         5750 points in       7 batches and       40 microbatches, Max-NSigAt=       8 Max-NSgAt2=       8
 IPart= 10         5060 of         5460 points in       6 batches and       37 microbatches, Max-NSigAt=       8 Max-NSgAt2=       8
 IPart= 22         4893 of         5296 points in       6 batches and       45 microbatches, Max-NSigAt=       8 Max-NSgAt2=       8
 IPart= 14         5798 of         6698 points in       9 batches and       62 microbatches, Max-NSigAt=       8 Max-NSgAt2=       8
 IPart= 11         4929 of         5324 points in       5 batches and       14 microbatches, Max-NSigAt=       8 Max-NSgAt2=       8
 IPart=  4         4735 of         4748 points in       4 batches and       13 microbatches, Max-NSigAt=       8 Max-NSgAt2=       8
 IPart= 26         5587 of         6198 points in       7 batches and       35 microbatches, Max-NSigAt=       8 Max-NSgAt2=       8
 IPart= 30         5145 of         5336 points in       5 batches and       24 microbatches, Max-NSigAt=       8 Max-NSgAt2=       8
 IPart= 23         4319 of         4748 points in       5 batches and       40 microbatches, Max-NSigAt=       8 Max-NSgAt2=       8
 IPart=  6         5095 of         5894 points in       7 batches and       31 microbatches, Max-NSigAt=       8 Max-NSgAt2=       8
 IPart= 13         5005 of         5524 points in       6 batches and       29 microbatches, Max-NSigAt=       8 Max-NSgAt2=       8
 IPart= 18         4414 of         4720 points in       4 batches and       18 microbatches, Max-NSigAt=       8 Max-NSgAt2=       8
 IPart= 20         5578 of         6196 points in       8 batches and       32 microbatches, Max-NSigAt=       8 Max-NSgAt2=       8
 IPart= 12         4684 of         5176 points in       7 batches and       56 microbatches, Max-NSigAt=       8 Max-NSgAt2=       8
 IPart= 15         4805 of         5074 points in       5 batches and       26 microbatches, Max-NSigAt=       8 Max-NSgAt2=       8
 IPart=  9         5261 of         5694 points in       6 batches and       29 microbatches, Max-NSigAt=       8 Max-NSgAt2=       8
 IPart=  3         4812 of         5338 points in       6 batches and       28 microbatches, Max-NSigAt=       8 Max-NSgAt2=       8
 IPart= 21         5787 of         6642 points in       9 batches and       39 microbatches, Max-NSigAt=       8 Max-NSgAt2=       8
 IPart=  1         5704 of         6354 points in       7 batches and       48 microbatches, Max-NSigAt=       8 Max-NSgAt2=       8
 IPart=  7         6740 of         7860 points in      10 batches and       47 microbatches, Max-NSigAt=       8 Max-NSgAt2=       8
 IPart=  5         6271 of         7074 points in       8 batches and       31 microbatches, Max-NSigAt=       8 Max-NSgAt2=       8
 IPart= 25         4929 of         5380 points in       6 batches and       43 microbatches, Max-NSigAt=       8 Max-NSgAt2=       8
 IPart= 19         5085 of         5324 points in       5 batches and       28 microbatches, Max-NSigAt=       8 Max-NSgAt2=       8
 IPart= 24         5650 of         5996 points in       6 batches and       18 microbatches, Max-NSigAt=       8 Max-NSgAt2=       8
 IPart= 28         5370 of         5706 points in       6 batches and       36 microbatches, Max-NSigAt=       8 Max-NSgAt2=       8
 IPart= 31         5049 of         5352 points in       5 batches and       26 microbatches, Max-NSigAt=       8 Max-NSgAt2=       8
 IPart= 16         5052 of         5324 points in       5 batches and       24 microbatches, Max-NSigAt=       8 Max-NSgAt2=       8
 IPart=  8         6110 of         6498 points in       7 batches and       31 microbatches, Max-NSigAt=       8 Max-NSgAt2=       8
 IPart=  0         5419 of         5520 points in       5 batches and       17 microbatches, Max-NSigAt=       8 Max-NSgAt2=       8
 IPart= 27         4821 of         5352 points in       6 batches and       47 microbatches, Max-NSigAt=       8 Max-NSgAt2=       8
 Forces at end of L703
 I=    0 X=   2.536218688753D-05 Y=  -1.348762071363D-05 Z=   3.806009102547D-06
 I=    1 X=  -9.123908941808D-03 Y=  -1.920962282598D-02 Z=  -5.947752016954D-03
 I=    2 X=   4.336182207524D-03 Y=   9.135324222086D-03 Z=  -9.016465994440D-04
 I=    3 X=   8.975335330121D-04 Y=   9.157139819394D-03 Z=   4.303877323028D-03
 I=    4 X=   6.532541789487D-03 Y=   6.483785048524D-03 Z=   4.303621279891D-03
 I=    5 X=   9.026945307248D-03 Y=   1.921291037160D-02 Z=   6.083646602525D-03
 I=    6 X=  -8.509903334342D-04 Y=  -9.140261181361D-03 Z=  -4.340186155191D-03
 I=    7 X=  -6.503875752445D-03 Y=  -6.484484053514D-03 Z=  -4.346796925013D-03
 I=    8 X=  -4.314427809599D-03 Y=  -9.154791400736D-03 Z=   8.452364911760D-04
 FrcOut:
 IF    =    45 IFX   =    69 IFXYZ =    93
 IFFX  =   117 IFFFX =   417 IFLen =    24
 IFFLen=   300 IFFFLn=     0 IEDerv=   417
 LEDerv=  1205 IFroze=  1904 ICStrt=108261
 FCEst1:  Generated internal coordinate force constants:
                1             2             3             4             5 
      1  0.582595D+00
      2 -0.128618D+00  0.372668D+00
      3 -0.405887D-01 -0.855066D-01  0.616983D+00
      4 -0.844210D-01  0.962482D-02 -0.825978D-02  0.623763D-01
      5  0.962478D-02 -0.687069D-01 -0.174026D-01 -0.428344D-02  0.553799D-01
      6  0.000000D+00  0.000000D+00 -0.355866D+00  0.000000D+00  0.000000D+00
      7 -0.317938D+00  0.372778D-02  0.981813D-01  0.149087D-01  0.131744D-03
      8 -0.123130D-01 -0.686729D-01  0.156103D-01  0.339909D-03  0.984526D-03
      9  0.899304D-01  0.886656D-02 -0.122222D+00  0.354605D-01  0.313355D-03
     10 -0.164108D+00  0.113219D+00 -0.499802D-01  0.631941D-02 -0.666936D-02
     11  0.129260D+00 -0.222502D+00  0.859394D-01 -0.687757D-02  0.957385D-02
     12 -0.499881D-01  0.752829D-01 -0.122221D+00 -0.221769D-01  0.276718D-01
     13 -0.205925D-01  0.397380D-02  0.125659D-02  0.816556D-03  0.119629D-02
     14  0.397079D-02 -0.141031D-01  0.263903D-02  0.119634D-02  0.276855D-02
     15  0.125468D-02  0.263701D-02 -0.216489D-01 -0.502400D-02 -0.105824D-01
     16 -0.167243D-02  0.464273D-03  0.104569D-02 -0.187469D-03  0.889986D-04
     17 -0.929344D-02  0.277204D-02  0.520134D-02  0.229746D-03 -0.109069D-03
     18 -0.397618D-02  0.110370D-02  0.248646D-02 -0.446413D-03  0.211929D-03
     19  0.531807D-02 -0.358707D-02  0.336961D-02 -0.296569D-03  0.140792D-03
     20  0.616882D-02 -0.422125D-02  0.410009D-02  0.000000D+00  0.000000D+00
     21  0.336804D-02 -0.238299D-02  0.248682D-02  0.446299D-03 -0.211874D-03
     22  0.819005D-03  0.119535D-02 -0.502455D-02  0.484074D-03 -0.229807D-03
     23  0.120070D-02  0.276599D-02 -0.105810D-01 -0.229885D-03  0.109135D-03
     24  0.000000D+00  0.000000D+00  0.196966D-05  0.000000D+00  0.000000D+00
                6             7             8             9            10 
      6  0.355866D+00
      7  0.000000D+00  0.311679D+00
      8  0.000000D+00 -0.166137D-02  0.553613D-01
      9  0.000000D+00 -0.104816D+00 -0.395158D-02  0.106441D+00
     10  0.000000D+00 -0.697853D-02  0.229252D-01 -0.165985D-01  0.159449D+00
     11  0.000000D+00 -0.266194D-02  0.955715D-02 -0.633145D-02 -0.125888D+00
     12  0.000000D+00  0.558887D-02 -0.168629D-01  0.132932D-01  0.632081D-01
     13  0.000000D+00 -0.167166D-02 -0.929075D-02 -0.397606D-02  0.531825D-02
     14  0.000000D+00  0.463759D-03  0.276988D-02  0.110306D-02 -0.358748D-02
     15  0.000000D+00  0.104617D-02  0.520412D-02  0.248832D-02  0.337066D-02
     16  0.000000D+00  0.726566D-04 -0.889783D-04  0.172814D-03  0.114864D-03
     17  0.000000D+00 -0.890413D-04  0.109044D-03 -0.211786D-03 -0.140767D-03
     18  0.000000D+00  0.173014D-03 -0.211881D-03  0.411516D-03  0.273522D-03
     19  0.000000D+00  0.114940D-03 -0.140760D-03  0.273386D-03  0.181711D-03
     20  0.000000D+00  0.000000D+00  0.000000D+00  0.000000D+00  0.000000D+00
     21  0.000000D+00 -0.172970D-03  0.211826D-03 -0.411411D-03 -0.273452D-03
     22  0.000000D+00 -0.187610D-03  0.229755D-03 -0.446233D-03 -0.296596D-03
     23  0.000000D+00  0.890955D-04 -0.109110D-03  0.211915D-03  0.140853D-03
     24  0.000000D+00  0.000000D+00  0.000000D+00  0.000000D+00  0.000000D+00
               11            12            13            14            15 
     11  0.207592D+00
     12 -0.837085D-01  0.106440D+00
     13  0.616758D-02  0.336795D-02  0.582813D+00
     14 -0.422080D-02 -0.238318D-02 -0.128670D+00  0.372629D+00
     15  0.410052D-02  0.248757D-02 -0.406636D-01 -0.853790D-01  0.616804D+00
     16  0.000000D+00 -0.172814D-03 -0.318103D+00  0.378220D-02  0.981597D-01
     17  0.000000D+00  0.211785D-03 -0.122662D-01 -0.686949D-01  0.155836D-01
     18  0.000000D+00 -0.411515D-03  0.899064D-01  0.884432D-02 -0.122198D+00
     19  0.000000D+00 -0.273385D-03 -0.164169D+00  0.113231D+00 -0.499821D-01
     20  0.000000D+00  0.000000D+00  0.129267D+00 -0.222470D+00  0.859342D-01
     21  0.000000D+00  0.411410D-03 -0.499812D-01  0.752728D-01 -0.122189D+00
     22  0.000000D+00  0.446231D-03 -0.844122D-01  0.961358D-02 -0.816141D-02
     23  0.000000D+00 -0.211914D-03  0.962210D-02 -0.686782D-01 -0.174980D-01
     24  0.000000D+00  0.000000D+00  0.899055D-04 -0.969917D-04 -0.355744D+00
               16            17            18            19            20 
     16  0.311846D+00
     17 -0.171688D-02  0.553748D-01
     18 -0.104792D+00 -0.392025D-02  0.106402D+00
     19 -0.696904D-02  0.229256D-01 -0.166031D-01  0.159499D+00
     20 -0.265997D-02  0.956329D-02 -0.633759D-02 -0.125900D+00  0.207560D+00
     21  0.558200D-02 -0.168645D-01  0.132978D-01  0.632111D-01 -0.836910D-01
     22  0.148978D-01  0.351011D-03  0.354652D-01  0.632077D-02 -0.687570D-02
     23  0.130401D-03  0.984686D-03  0.309883D-03 -0.666896D-02  0.956820D-02
     24  0.507532D-05  0.000000D+00  0.120823D-04  0.450267D-05 -0.570635D-05
               21            22            23            24 
     21  0.106422D+00
     22 -0.221799D-01  0.623748D-01
     23  0.276656D-01 -0.428430D-02  0.553593D-01
     24 -0.172898D-04 -0.993454D-04  0.103477D-03  0.355747D+00
 Quadrupole    =-1.73148092D-01 4.46583166D-01-2.73435075D-01
                 3.79717311D-01 1.19146316D-01 2.52102973D-01
 -------------------------------------------------------------------
 Center     Atomic                   Forces (Hartrees/Bohr)
 Number     Number              X              Y              Z
 -------------------------------------------------------------------
      1        6           0.009123909    0.019209623    0.005947752
      2        1          -0.004336182   -0.009135324    0.000901647
      3        1          -0.000897534   -0.009157140   -0.004303877
      4        1          -0.006532542   -0.006483785   -0.004303621
      5        6          -0.009026945   -0.019212910   -0.006083647
      6        1           0.000850990    0.009140261    0.004340186
      7        1           0.006503876    0.006484484    0.004346797
      8        1           0.004314428    0.009154791   -0.000845236
 -------------------------------------------------------------------
 Cartesian Forces:  Max     0.019212910 RMS     0.008150251
 From PutF, contents of force:
   1    0.9016465994D-03
   2    0.8406725326D-03
   3    0.8445300958D-03
   4    0.8835746207D-02
   5    0.8831863684D-02
   6   -0.1729036974D-01
   7    0.8982710994D-03
   8    0.8451236862D-03
   9    0.8435209068D-03
  10    0.8848734995D-02
  11    0.8831653653D-02
  12    0.1728054768D-01
  13    0.2480546380D-05
  14   -0.3539908289D-05
  15   -0.6342516392D-05
  16   -0.4587168087D-05
  17   -0.2250409462D-04
  18   -0.6407826524D-02
 -----------------------------------------------------------------------------------------------
                       Internal Coordinate Forces (Hartree/Bohr or radian)
  Cent   Atom   N1       Length/X         N2         Alpha/Y        N3         Beta/Z          J
 -----------------------------------------------------------------------------------------------
      1  C 
      2  H        1   0.000902(     1)
      3  H        1   0.000841(     2)      2   0.008836(     8)
      4  H        1   0.000845(     3)      2   0.008832(     9)      3  -0.017290(    14)     0
      5  C        1  -0.006408(     4)      2  -0.000023(    10)      3  -0.000005(    15)     0
      6  H        5   0.000898(     5)      1   0.000002(    11)      2  -0.000006(    16)     0
      7  H        5   0.000845(     6)      6   0.008849(    12)      1  -0.000004(    17)     0
      8  H        5   0.000844(     7)      6   0.008832(    13)      7   0.017281(    18)     0
 -----------------------------------------------------------------------------------------------
 Internal  Forces:  Max     0.017290370 RMS     0.007285721
 Force constants in Cartesian coordinates: 
                1             2             3             4             5 
      1  0.582595D+00
      2 -0.128618D+00  0.372668D+00
      3 -0.405887D-01 -0.855066D-01  0.616983D+00
      4 -0.844210D-01  0.962482D-02 -0.825978D-02  0.623763D-01
      5  0.962478D-02 -0.687069D-01 -0.174026D-01 -0.428344D-02  0.553799D-01
      6  0.000000D+00  0.000000D+00 -0.355866D+00  0.000000D+00  0.000000D+00
      7 -0.317938D+00  0.372778D-02  0.981813D-01  0.149087D-01  0.131744D-03
      8 -0.123130D-01 -0.686729D-01  0.156103D-01  0.339909D-03  0.984526D-03
      9  0.899304D-01  0.886656D-02 -0.122222D+00  0.354605D-01  0.313355D-03
     10 -0.164108D+00  0.113219D+00 -0.499802D-01  0.631941D-02 -0.666936D-02
     11  0.129260D+00 -0.222502D+00  0.859394D-01 -0.687757D-02  0.957385D-02
     12 -0.499881D-01  0.752829D-01 -0.122221D+00 -0.221769D-01  0.276718D-01
     13 -0.205925D-01  0.397380D-02  0.125659D-02  0.816556D-03  0.119629D-02
     14  0.397079D-02 -0.141031D-01  0.263903D-02  0.119634D-02  0.276855D-02
     15  0.125468D-02  0.263701D-02 -0.216489D-01 -0.502400D-02 -0.105824D-01
     16 -0.167243D-02  0.464273D-03  0.104569D-02 -0.187469D-03  0.889986D-04
     17 -0.929344D-02  0.277204D-02  0.520134D-02  0.229746D-03 -0.109069D-03
     18 -0.397618D-02  0.110370D-02  0.248646D-02 -0.446413D-03  0.211929D-03
     19  0.531807D-02 -0.358707D-02  0.336961D-02 -0.296569D-03  0.140792D-03
     20  0.616882D-02 -0.422125D-02  0.410009D-02  0.000000D+00  0.000000D+00
     21  0.336804D-02 -0.238299D-02  0.248682D-02  0.446299D-03 -0.211874D-03
     22  0.819005D-03  0.119535D-02 -0.502455D-02  0.484074D-03 -0.229807D-03
     23  0.120070D-02  0.276599D-02 -0.105810D-01 -0.229885D-03  0.109135D-03
     24  0.000000D+00  0.000000D+00  0.196966D-05  0.000000D+00  0.000000D+00
                6             7             8             9            10 
      6  0.355866D+00
      7  0.000000D+00  0.311679D+00
      8  0.000000D+00 -0.166137D-02  0.553613D-01
      9  0.000000D+00 -0.104816D+00 -0.395158D-02  0.106441D+00
     10  0.000000D+00 -0.697853D-02  0.229252D-01 -0.165985D-01  0.159449D+00
     11  0.000000D+00 -0.266194D-02  0.955715D-02 -0.633145D-02 -0.125888D+00
     12  0.000000D+00  0.558887D-02 -0.168629D-01  0.132932D-01  0.632081D-01
     13  0.000000D+00 -0.167166D-02 -0.929075D-02 -0.397606D-02  0.531825D-02
     14  0.000000D+00  0.463759D-03  0.276988D-02  0.110306D-02 -0.358748D-02
     15  0.000000D+00  0.104617D-02  0.520412D-02  0.248832D-02  0.337066D-02
     16  0.000000D+00  0.726566D-04 -0.889783D-04  0.172814D-03  0.114864D-03
     17  0.000000D+00 -0.890413D-04  0.109044D-03 -0.211786D-03 -0.140767D-03
     18  0.000000D+00  0.173014D-03 -0.211881D-03  0.411516D-03  0.273522D-03
     19  0.000000D+00  0.114940D-03 -0.140760D-03  0.273386D-03  0.181711D-03
     20  0.000000D+00  0.000000D+00  0.000000D+00  0.000000D+00  0.000000D+00
     21  0.000000D+00 -0.172970D-03  0.211826D-03 -0.411411D-03 -0.273452D-03
     22  0.000000D+00 -0.187610D-03  0.229755D-03 -0.446233D-03 -0.296596D-03
     23  0.000000D+00  0.890955D-04 -0.109110D-03  0.211915D-03  0.140853D-03
     24  0.000000D+00  0.000000D+00  0.000000D+00  0.000000D+00  0.000000D+00
               11            12            13            14            15 
     11  0.207592D+00
     12 -0.837085D-01  0.106440D+00
     13  0.616758D-02  0.336795D-02  0.582813D+00
     14 -0.422080D-02 -0.238318D-02 -0.128670D+00  0.372629D+00
     15  0.410052D-02  0.248757D-02 -0.406636D-01 -0.853790D-01  0.616804D+00
     16  0.000000D+00 -0.172814D-03 -0.318103D+00  0.378220D-02  0.981597D-01
     17  0.000000D+00  0.211785D-03 -0.122662D-01 -0.686949D-01  0.155836D-01
     18  0.000000D+00 -0.411515D-03  0.899064D-01  0.884432D-02 -0.122198D+00
     19  0.000000D+00 -0.273385D-03 -0.164169D+00  0.113231D+00 -0.499821D-01
     20  0.000000D+00  0.000000D+00  0.129267D+00 -0.222470D+00  0.859342D-01
     21  0.000000D+00  0.411410D-03 -0.499812D-01  0.752728D-01 -0.122189D+00
     22  0.000000D+00  0.446231D-03 -0.844122D-01  0.961358D-02 -0.816141D-02
     23  0.000000D+00 -0.211914D-03  0.962210D-02 -0.686782D-01 -0.174980D-01
     24  0.000000D+00  0.000000D+00  0.899055D-04 -0.969917D-04 -0.355744D+00
               16            17            18            19            20 
     16  0.311846D+00
     17 -0.171688D-02  0.553748D-01
[...]
 Frc consts  --      5.7970                 5.7983                 7.2004
 IR Inten    --  0.6522E-02             0.2795E-04             0.4815E-01
  Atom  AN      X      Y      Z        X      Y      Z        X      Y      Z
     1   6    -0.00  -0.00  -0.00    -0.00  -0.00  -0.00    -0.03   0.00  -0.06
     2   1    -0.00  -0.00   0.42    -0.00  -0.00   0.40    -0.00  -0.00   0.49
     3   1     0.36  -0.00  -0.21     0.34  -0.00  -0.20    -0.04   0.00   0.01
     4   1    -0.36   0.02  -0.21    -0.34   0.02  -0.20     0.39  -0.03   0.22
     5   6     0.00  -0.00  -0.00    -0.00   0.00   0.00     0.04  -0.00   0.06
     6   1     0.34  -0.00  -0.20    -0.36  -0.00   0.21    -0.01  -0.00   0.02
     7   1    -0.35   0.02  -0.19     0.36  -0.02   0.21    -0.47   0.03  -0.26
     8   1     0.00   0.00   0.40    -0.00  -0.00  -0.42     0.00  -0.00  -0.51
                     16                     17                     18
                      A                      A                      A
 Frequencies --   3305.4215              3305.7593              3305.9776
 Red. masses --      1.1187                 1.1185                 1.1185
 Frc consts  --      7.2012                 7.2013                 7.2023
 IR Inten    --  0.2146                  6.737                  6.752    
  Atom  AN      X      Y      Z        X      Y      Z        X      Y      Z
     1   6    -0.06   0.00   0.05     0.05  -0.00   0.06     0.06  -0.00  -0.03
     2   1    -0.01   0.00  -0.38     0.01   0.00  -0.47     0.01  -0.00   0.23
     3   1     0.54  -0.00  -0.31    -0.08  -0.00   0.06    -0.44   0.00   0.26
     4   1     0.21  -0.01   0.13    -0.49   0.03  -0.28    -0.24   0.02  -0.15
     5   6     0.06  -0.00  -0.02     0.03  -0.00   0.06     0.06  -0.00  -0.04
     6   1    -0.44  -0.00   0.26     0.07  -0.00  -0.03    -0.54  -0.00   0.32
     7   1    -0.29   0.02  -0.17    -0.37   0.02  -0.20    -0.24   0.01  -0.15
     8   1     0.01   0.00   0.17    -0.00  -0.00  -0.50     0.01   0.00   0.34

 -------------------
 - Thermochemistry -
 -------------------
 Temperature   298.150 Kelvin.  Pressure   1.00000 Atm.
 Atom     1 has atomic number  6 and mass  12.00000
 Atom     2 has atomic number  1 and mass   1.00783
 Atom     3 has atomic number  1 and mass   1.00783
 Atom     4 has atomic number  1 and mass   1.00783
 Atom     5 has atomic number  6 and mass  12.00000
 Atom     6 has atomic number  1 and mass   1.00783
 Atom     7 has atomic number  1 and mass   1.00783
 Atom     8 has atomic number  1 and mass   1.00783
 Molecular mass:    30.04695 amu.
 Principal axes and moments of inertia in atomic units:
                           1         2         3
     Eigenvalues --    25.08913 324.28752 324.29036
           X            0.03057  -0.23486   0.97155
           Y            0.99933  -0.01224  -0.03440
           Z            0.01997   0.97195   0.23433
 This molecule is an asymmetric top.
 Rotational symmetry number  1.
 Rotational temperatures (Kelvin)      3.45224     0.26709     0.26709
 Rotational constants (GHZ):          71.93318     5.56525     5.56520
    1 imaginary frequencies ignored.
 Zero-point vibrational energy     161245.1 (Joules/Mol)
                                   38.53850 (Kcal/Mol)
 Warning -- explicit consideration of   7 degrees of freedom as
           vibrations may cause significant error
 Vibrational temperatures:     37.24   238.80   258.34   286.93   303.08
          (Kelvin)            752.55   780.48  2026.44  2026.94  2030.08
                             2030.56  4495.33  4495.80  4755.47  4755.76
                             4756.24  4756.56
 
 Zero-point correction=                           0.061415 (Hartree/Particle)
 Thermal correction to Energy=                    0.067880
 Thermal correction to Enthalpy=                  0.068824
 Thermal correction to Gibbs Free Energy=         0.033203
 Sum of electronic and zero-point Energies=            -79.621248
 Sum of electronic and thermal Energies=               -79.614783
 Sum of electronic and thermal Enthalpies=             -79.613839
 Sum of electronic and thermal Free Energies=          -79.649461
 
                     E (Thermal)             CV                S
                      KCal/Mol        Cal/Mol-Kelvin    Cal/Mol-Kelvin
 Total                   42.595             18.128             74.972
 Electronic               0.000              0.000              0.000
 Translational            0.889              2.981             36.134
 Rotational               0.889              2.981             22.494
 Vibrational             40.818             12.166             16.344
 Vibration     1          0.593              1.985              6.122
 Vibration     2          0.624              1.884              2.481
 Vibration     3          0.629              1.867              2.333
 Vibration     4          0.638              1.841              2.138
 Vibration     5          0.643              1.825              2.038
 Vibration     6          0.878              1.199              0.603
 Vibration     7          0.898              1.156              0.560
                       Q            Log10(Q)             Ln(Q)
 Total Bot       0.534489D-15        -15.272062        -35.165221
 Total V=0       0.948029D+13         12.976821         29.880236
 Vib (Bot)       0.449015D-26        -26.347739        -60.667911
 Vib (Bot)    1  0.800156D+01          0.903174          2.079636
 Vib (Bot)    2  0.121578D+01          0.084854          0.195383
 Vib (Bot)    3  0.111875D+01          0.048735          0.112216
 Vib (Bot)    4  0.100007D+01          0.000029          0.000067
 Vib (Bot)    5  0.942604D+00         -0.025671         -0.059109
 Vib (Bot)    6  0.307737D+00         -0.511821         -1.178510
 Vib (Bot)    7  0.291386D+00         -0.535531         -1.233105
 Vib (V=0)       0.796424D+02          1.901144          4.377546
 Vib (V=0)    1  0.851716D+01          0.930295          2.142083
 Vib (V=0)    2  0.181458D+01          0.258775          0.595852
 Vib (V=0)    3  0.172540D+01          0.236890          0.545460
 Vib (V=0)    4  0.161809D+01          0.209004          0.481249
 Vib (V=0)    5  0.156701D+01          0.195071          0.449167
 Vib (V=0)    6  0.108711D+01          0.036275          0.083526
 Vib (V=0)    7  0.107871D+01          0.032905          0.075766
 Electronic      0.100000D+01          0.000000          0.000000
 Translational   0.647375D+07          6.811156         15.683266
 Rotational      0.183874D+05          4.264521          9.819423
 -------------------------------------------------------------------
 Center     Atomic                   Forces (Hartrees/Bohr)
 Number     Number              X              Y              Z
 -------------------------------------------------------------------
      1        6          -0.000132523   -0.004716607   -0.000110620
      2        1           0.000002899   -0.000003153    0.000005477
      3        1          -0.000005972    0.000006084    0.000001360
      4        1          -0.000004868   -0.000011925    0.000002544
      5        6           0.000164931    0.004726802    0.000121956
      6        1          -0.000011268   -0.000002222   -0.000007828
      7        1          -0.000002801   -0.000014964   -0.000010150
      8        1          -0.000010398    0.000015986   -0.000002740
 -------------------------------------------------------------------
 Cartesian Forces:  Max     0.004726802 RMS     0.001364156
 -----------------------------------------------------------------------------------------------
                       Internal Coordinate Forces (Hartree/Bohr or radian)
  Cent   Atom   N1       Length/X         N2         Alpha/Y        N3         Beta/Z          J
 -----------------------------------------------------------------------------------------------
      1  C 
      2  H        1   0.000005(     1)
      3  H        1  -0.000006(     2)      2   0.000004(     8)
      4  H        1   0.000002(     3)      2  -0.000009(     9)      3  -0.000022(    14)     0
      5  C        1  -0.004729(     4)      2   0.000003(    10)      3   0.000051(    15)     0
      6  H        5   0.000006(     5)      1   0.000005(    11)      2  -0.000012(    16)     0
      7  H        5  -0.000007(     6)      6   0.000014(    12)      1   0.000056(    17)     0
      8  H        5   0.000003(     7)      6  -0.000021(    13)      7   0.000028(    18)     0
 -----------------------------------------------------------------------------------------------
 Internal  Forces:  Max     0.004728764 RMS     0.001114781

 GradGradGradGradGradGradGradGradGradGradGradGradGradGradGradGradGradGrad
 Berny optimization.
 Search for a local minimum.
 Step number   1 out of a maximum of    2
 All quantities printed in internal units (Hartrees-Bohrs-Radians)
 Second derivative matrix not updated -- analytic derivatives used.
 The second derivative matrix:
                          R1        R2        R3        A2        A3
           R1           0.37216
           R2           0.00005   0.37224
           R3           0.00006   0.00006   0.37222
           A2           0.01587   0.00013  -0.01587   0.18870
           A3           0.01587  -0.01588   0.00010   0.09408   0.18886
           D3           0.00022  -0.00083  -0.00117   0.00610   0.00556
           R21          0.00005  -0.00005   0.00005   0.00000   0.00002
           R22          0.00004   0.00005  -0.00005   0.00002   0.00000
           R23         -0.00006   0.00004   0.00005  -0.00003  -0.00003
           A22          0.00002  -0.00003   0.00000  -0.00019  -0.00035
           A23          0.00000  -0.00003   0.00002   0.00021  -0.00018
           D23          0.00008  -0.00014  -0.00014   0.00015   0.00016
           ANG2         0.00013  -0.00026   0.00013  -0.00003   0.00028
           DH3          0.00022   0.00000  -0.00022   0.00031   0.00013
           DH2         -0.00000   0.00000  -0.00000   0.00004  -0.00004
           DH1         -0.00000  -0.00047   0.00046  -0.00059   0.00060
           ANG1        -0.00054   0.00026   0.00026  -0.00070  -0.00069
           BB          -0.00015  -0.00015  -0.00014  -0.00006  -0.00005
                          D3        R21       R22       R23       A22
           D3           0.01230
           R21          0.00014   0.37228
           R22         -0.00008   0.00006   0.37219
           R23          0.00013   0.00005   0.00006   0.37217
           A22         -0.00003   0.01590  -0.00003  -0.01584   0.18880
           A23          0.00016   0.01580  -0.01578   0.00007   0.09406
           D23          0.00020  -0.00018   0.00079   0.00131  -0.00596
           ANG2        -0.00036  -0.00056   0.00016   0.00025  -0.00058
           DH3          0.00061  -0.00002  -0.00037   0.00054  -0.00078
           DH2          0.00000  -0.00018   0.00018  -0.00001  -0.00006
           DH1         -0.00376  -0.00022   0.00037   0.00005  -0.00030
           ANG1        -0.00221   0.00009   0.00015  -0.00021   0.00021
           BB           0.00120  -0.00015  -0.00014  -0.00015  -0.00006
                          A23       D23      ANG2       DH3       DH2
           A23          0.18868
           D23         -0.00530   0.01278
           ANG2        -0.00057   0.00271   0.00797
           DH3          0.00054   0.00465   0.00040   0.00881
           DH2          0.00004  -0.00004   0.00000  -0.00006   0.00019
           DH1         -0.00042  -0.00006   0.00082  -0.00035  -0.00005
           ANG1        -0.00005   0.00021   0.00002   0.00015  -0.00006
           BB          -0.00005  -0.00124  -0.00002   0.00003   0.00000
                          DH1      ANG1       BB
           DH1          0.00804
           ANG1         0.00035   0.00847
           BB          -0.00029  -0.00032  -0.00502
 ITU=  0
     Eigenvalues ---    0.00019   0.00499   0.00554   0.00743   0.00842
     Eigenvalues ---    0.01502   0.01645   0.09367   0.09391   0.27506
     Eigenvalues ---    0.27555   0.37229   0.37236   0.37300   0.37312
     Eigenvalues ---    0.37989   0.379981000.00000
 Angle between quadratic step and forces=  75.02 degrees.
 Linear search not attempted -- first point.
 Variable       Old X    -DE/DX   Delta X   Delta X   Delta X     New X
                                 (Linear)    (Quad)   (Total)
    R1        2.03737   0.00001   0.00000   0.00001   0.00001   2.03738
    R2        2.03740  -0.00001   0.00000  -0.00001  -0.00001   2.03739
    R3        2.03738   0.00000   0.00000   0.00001   0.00001   2.03739
    A2        2.09371   0.00000   0.00000   0.00011   0.00011   2.09382
    A3        2.09370  -0.00001   0.00000  -0.00013  -0.00013   2.09357
    D3        3.21339  -0.00002   0.00000  -0.00025  -0.00025   3.21314
   R21        2.03737   0.00001   0.00000  -0.00001  -0.00001   2.03736
   R22        2.03741  -0.00001   0.00000   0.00000   0.00000   2.03741
   R23        2.03737   0.00000   0.00000   0.00001   0.00001   2.03738
   A22        2.09338   0.00001   0.00000   0.00019   0.00019   2.09356
   A23        2.09392  -0.00002   0.00000  -0.00020  -0.00020   2.09372
   D23        3.07014   0.00003   0.00000  -0.00016  -0.00016   3.06998
   ANG2       1.59030   0.00001   0.00000  -0.00023  -0.00023   1.59008
   DH3        1.59859   0.00006   0.00000   0.00635   0.00635   1.60494
   DH2        1.03657  -0.00001   0.00000  -0.05896  -0.05896   0.97761
   DH1        1.60142   0.00005   0.00000   0.00619   0.00619   1.60761
   ANG1       1.59065   0.00000   0.00000  -0.00050  -0.00050   1.59015
    BB        6.42507  -0.00473   0.00000   0.00000   0.00000   6.42507
         Item               Value     Threshold  Converged?
 Maximum Force            0.000056     0.000450     YES
 RMS     Force            0.000022     0.000300     YES
 Maximum Displacement     0.058958     0.001800     NO 
 RMS     Displacement     0.014054     0.001200     NO 
 Predicted change in Energy=-6.919933D-07
 GradGradGradGradGradGradGradGradGradGradGradGradGradGradGradGradGradGrad


 Test job not archived.
 1\1\GINC-NODE-6-11\Freq\UwB97XD\Aug-CC-pVTZ\C2H6\CAVALLOTTI\27-May-202
 3\1\\#N Geom=AllCheck Guess=TCheck SCRF=Check Test GenChk UwB97XD/Aug-
 CC-pVTZ Freq\\geom 0\\0,1\C\H,1,R1\H,1,R2,2,A2\H,1,R3,2,A3,3,D3,0\C,1,
 BB,2,ANG1,3,DH1,0\H,5,R21,1,ANG2,2,DH2,0\H,5,R22,6,A22,1,DH3,0\H,5,R23
 ,6,A23,7,D23,0\\R1=1.07812727\R2=1.07814717\R3=1.07813479\A2=119.96065
 539\A3=119.96021505\D3=184.1135308\R21=1.07813031\R22=1.07814904\R23=1
 .07813045\A22=119.94173802\A23=119.97266026\D23=175.90631413\ANG2=91.1
 1758176\DH3=91.59243303\DH2=59.39104898\DH1=91.75460556\ANG1=91.137458
 37\BB=3.4\\Version=EM64L-G09RevD.01\HF=-79.6826631\S2=0.936614\S2-1=0.
 \S2A=0.052206\RMSD=9.220e-10\RMSF=1.364e-03\ZeroPoint=0.061415\Thermal
 =0.0678801\Dipole=0.0001769,0.0000913,0.0001803\DipoleDeriv=0.0113605,
 -0.0157226,-0.0002068,-0.0156942,-0.4250854,-0.0094228,-0.0002137,-0.0
 090066,0.012196,0.0419971,0.0037315,-0.0001475,0.0036822,0.1430231,-0.
 0026626,0.000025,0.0017979,-0.0501037,-0.0270515,0.0033887,0.039389,-0
 .0004266,0.1413889,0.0043761,0.0390536,0.0020228,0.0189242,-0.0263227,
 0.0085216,-0.0390451,0.0123333,0.1407124,0.0075723,-0.0388879,0.005100
 4,0.0189989,0.0114961,-0.0118639,-0.0001053,-0.0117141,-0.4257122,-0.0
 054339,-0.0001583,-0.0051952,0.0124565,-0.0260674,0.0023263,0.0397938,
 -0.0015272,0.1414201,0.0037525,0.039655,0.001425,0.0179147,-0.0274682,
 0.0067179,-0.0386919,0.0105853,0.1410408,0.0061078,-0.0385538,0.003681
 5,0.0195751,0.0420561,0.0029006,-0.0009862,0.0027613,0.1432124,-0.0042
 893,-0.0009199,0.0001741,-0.0499618\Polar=31.0629611,0.495645,47.01557
 63,0.0095781,0.3146229,31.0475204\PG=C01 [X(C2H6)]\NImag=1\\0.62040355
 ,-0.02163767,0.01901214,-0.00048059,-0.01265207,0.62092745,-0.05465122
 ,0.00164051,-0.00002905,0.04545824,0.00166152,-0.00834160,-0.00074101,
 -0.00148647,0.00407754,0.00002316,0.00066406,-0.35873620,-0.00002381,-
 0.00075190,0.37216205,-0.28291502,0.00143646,0.13166349,0.00466403,0.0
 0019686,-0.00384475,0.29068233,0.00015345,-0.00817655,0.00183584,0.000
 20876,0.00246876,0.00009013,-0.00138687,0.00385682,0.13164358,0.001130
 63,-0.13049040,0.02362122,0.00014084,-0.00677636,-0.14141823,-0.000927
 49,0.12701786,-0.28162241,0.01825049,-0.13115347,0.00462185,-0.0003463
 0,0.00384028,-0.01249865,0.00143072,-0.01373836,0.28941332,0.01951389,
 -0.00961514,0.01134333,-0.00033658,0.00252067,-0.00015142,-0.00036069,
 0.00255360,-0.00024898,-0.01917651,0.00522660,-0.13118737,0.01062312,-
 0.13049656,-0.02355034,0.00181744,-0.00677640,0.01368632,-0.00120068,0
 .01028414,0.14094990,-0.01114797,0.12702269,-0.00138124,0.00036879,-0.
 00000491,0.00005481,-0.00002830,0.00000819,0.00004841,-0.00045613,-0.0
 0000973,0.00006139,0.00041103,0.00000700,0.62065877,0.00038601,0.00923
 001,0.00028737,-0.00002940,-0.00071468,0.00025798,0.00021795,-0.000708
 92,-0.00016043,-0.00025791,-0.00068317,-0.00014761,-0.01673234,0.01854
 576,0.00000612,0.00027127,-0.00136894,-0.00002315,-0.00051999,0.000050
 74,0.00000983,0.00021906,0.00005616,0.00000472,0.00023023,0.00005961,-
 0.00030643,-0.00776515,0.62116418,0.00005101,0.00022339,0.00001388,-0.
 00003586,-0.00009345,-0.00004693,0.00002000,0.00003977,-0.00005935,0.0
 0003422,-0.00004783,0.00000307,-0.28013605,0.00019642,0.13324724,0.287
 71097,-0.00045350,-0.00070135,0.00022784,-0.00004079,0.00007165,-0.000
 07805,0.00003770,-0.00013036,-0.00002428,0.00005058,0.00006440,0.00008
 027,-0.00105462,-0.00815287,0.00198802,-0.00012973,0.00382157,-0.00001
 282,-0.00015149,0.00005535,-0.00003382,0.00000582,0.00001193,-0.000058
 10,-0.00002215,-0.00005058,0.00000019,0.00008119,-0.00005208,0.1332465
 3,0.00125384,-0.13335417,-0.14312184,-0.00113212,0.13007847,0.00006066
 ,-0.00026443,0.00000275,-0.00002833,0.00009729,0.00004153,0.00003577,0
 .00005124,-0.00000216,0.00001605,-0.00004802,0.00005671,-0.28459641,0.
 01499289,-0.12975906,-0.01251157,0.00118413,-0.01351121,0.29260145,0.0
 0040821,-0.00073148,0.00022447,0.00004780,0.00006152,-0.00007904,-0.00
 004961,0.00006847,0.00008426,-0.00004816,-0.00012546,-0.00002739,0.016
 24527,-0.00912357,0.00908556,-0.00037556,0.00254998,-0.00029402,-0.015
 72438,0.00477985,-0.00000243,-0.00014157,0.00005422,0.00003724,-0.0000
 0061,0.00000909,0.00000658,0.00008151,-0.00005083,0.00005661,-0.000026
 10,-0.00005154,-0.12980220,0.00838350,-0.12791666,0.01393682,-0.001043
 89,0.01029382,0.13944555,-0.00880321,0.12423923,0.00005467,-0.00001754
 ,-0.00001210,-0.00008352,-0.00000114,0.00000232,-0.00003686,-0.0000409
 4,-0.00003698,-0.00002577,0.00004470,0.00003471,-0.05470969,0.00122637
 ,-0.00317927,0.00486730,0.00040623,0.02349106,0.00442237,-0.00050358,-
 0.02367816,0.04551151,-0.00003190,-0.00067603,-0.00052577,-0.00000383,
 -0.00014386,0.00004824,-0.00009181,0.00006818,0.00000546,0.00009708,0.
 00005851,0.00000281,0.00124630,-0.00839256,-0.00350899,0.00018699,0.00
 247699,0.00025893,-0.00028872,0.00252070,0.00155037,-0.00111411,0.0040
 8807,0.00001035,0.00025605,0.00005508,0.00000170,0.00004940,0.00005515
 ,-0.00004515,-0.00007622,0.00001002,0.00004013,-0.00008027,0.00001013,
 -0.00313844,-0.00210950,-0.35869091,-0.00397290,-0.00001778,-0.0069827
 4,0.00372590,-0.00019063,-0.00657734,0.00337842,0.00216895,0.37212061\
 \0.00013252,0.00471661,0.00011062,-0.00000290,0.00000315,-0.00000548,0
 .00000597,-0.00000608,-0.00000136,0.00000487,0.00001193,-0.00000254,-0
 .00016493,-0.00472680,-0.00012196,0.00001127,0.00000222,0.00000783,0.0
 0000280,0.00001496,0.00001015,0.00001040,-0.00001599,0.00000274\\\@


 DEFINE YOUR TERMS, YOU WILL PERMIT ME AGAIN TO SAY, 
 OR WE SHALL NEVER UNDERSTAND ONE ANOTHER.

                                    -- VOLTAIRE
 Job cpu time:       0 days  0 hours 48 minutes 10.2 seconds.
 File lengths (MBytes):  RWF=    106 Int=      0 D2E=      0 Chk=      7 Scr=      1
 Normal termination of Gaussian 09 at Sat May 27 09:03:31 2023.
