
 Working directory              : /scratch/cc//molpro.CCQ6zbAzgL/
 Global scratch directory       : /scratch/cc//molpro.CCQ6zbAzgL/
 Wavefunction directory         : /home/chimica2/cavallotti/wfu/
 Main file repository           : /scratch/cc//molpro.CCQ6zbAzgL/

 id        : polimi

 Nodes     nprocs
 node-6-10    1
 Distribution of processes:   nprocs(total)=    2   nprocs(compute)=    1   nprocs(helper)=    1
 GA implementation: MPI file
 GA implementation (serial work in mppx): MPI file

 Using customized tuning parameters: mindgm=1; mindgv=20; mindgc=4; mindgr=1; noblas=0; minvec=7
 default implementation of scratch files=df  


 Variables initialized (1009), CPU time= 0.00 sec
  memory,         400 ,m
 
 symmetry, nosym; orient, noorient
 angstrom
 geomtyp=xyz
 geometry={
 5
 rotational dynamics
 C, 0.0147205, -0.189071, 0.162081
 H, -0.361432, 0.339992, 1.02296
 H, 0.317748, -1.21979, 0.253296
 H, 0.0849555, 0.311339, -0.790378
 H, -0.216547, 2.81969, -2.41574
 }
 
  basis=cc-pvdz
  {multi;closed, 4;occ, 6;wf, 10,1,0,;state,1;maxiter,40}
  if (iterations.ge.0) then
     {rs2,shift=0.2;orbital,IGNORE_ERROR;state,1}
     molpro_energy = energy +   40.192865169999997
  else
     molpro_energy = 10.0
  endif
 Commands initialized (810), CPU time= 0.01 sec, 661 directives.
 Default parameters read. Elapsed time= 0.16 sec

 Checking input...
 Passed
1


                                         ***  PROGRAM SYSTEM MOLPRO  ***
                                       Copyright, TTI GmbH Stuttgart, 2015
                                    Version 2021.2 linked Jun  2 2021 16:00:59


 **********************************************************************************************************************************
 LABEL *                                                                                 
  64 bit serial version                                                                  DATE: 03-Jun-23          TIME: 09:16:08  
 **********************************************************************************************************************************

 SHA1:             1987c3f1b0c3ae76932bc24993909f2d7ae6b1f1
 **********************************************************************************************************************************

 Memory per process:       400 MW
 Total memory per node:    400 MW

 GA preallocation disabled
 GA check disabled

 Variable memory set to 400.0 MW

 SETTING GEOMTYP        =    XYZ
 ZSYMEL=NOSYM
 ZUNIT=ANG

 SETTING BASIS          =    CC-PVDZ


 Recomputing integrals since basis changed


 Using spherical harmonics

 Library entry C      S cc-pVDZ              selected for orbital group  1
 Library entry C      P cc-pVDZ              selected for orbital group  1
 Library entry C      D cc-pVDZ              selected for orbital group  1
 Library entry H      S cc-pVDZ              selected for orbital group  2
 Library entry H      P cc-pVDZ              selected for orbital group  2


 PROGRAM * SEWARD (Integral evaluation for generally contracted gaussian basis sets)     Author: Roland Lindh, 1990

 Geometry written to block  1 of record 700


 Point group  C1  



 ATOMIC COORDINATES

 NR  ATOM    CHARGE       X              Y              Z

   1  C       6.00    0.027817713   -0.357292408    0.306288700
   2  H       1.00   -0.683007493    0.642491765    1.933114236
   3  H       1.00    0.600456697   -2.305069030    0.478660068
   4  H       1.00    0.160542628    0.588345442   -1.493597955
   5  H       1.00   -0.409214523    5.328441856   -4.565086988

 Bond lengths in Bohr (Angstrom)

 1-2  2.037499004  1-3  2.037513450  1-4  2.037507992
     ( 1.078198040)     ( 1.078205685)     ( 1.078202796)

 Bond angles

  2-1-3  119.97240978   2-1-4  120.02074810   3-1-4  120.00656274

 NUCLEAR CHARGE:                   10
 NUMBER OF PRIMITIVE AOS:          55
 NUMBER OF SYMMETRY AOS:           54
 NUMBER OF CONTRACTIONS:           34   (   34A   )
 NUMBER OF INNER CORE ORBITALS:     0   (    0A   )
 NUMBER OF OUTER CORE ORBITALS:     1   (    1A   )
 NUMBER OF VALENCE ORBITALS:        8   (    8A   )


 NUCLEAR REPULSION ENERGY   10.89395617


 Eigenvalues of metric

         1 0.148E-01 0.344E-01 0.352E-01 0.421E-01 0.511E-01 0.542E-01 0.931E-01 0.123E+00


 Contracted 2-electron integrals neglected if value below      1.0D-11
 AO integral compression algorithm  1   Integral accuracy      1.0D-11

     1.049 MB (compressed) written to integral file ( 65.9%)


 NUMBER OF SORTED TWO-ELECTRON INTEGRALS:     177310.     BUFFER LENGTH:  32768
 NUMBER OF SEGMENTS:   1  SEGMENT LENGTH:     177310      RECORD LENGTH: 524288

 Memory used in sort:       0.73 MW

 SORT1 READ      211127. AND WROTE      162667. INTEGRALS IN      1 RECORDS. CPU TIME:     0.00 SEC, REAL TIME:     0.01 SEC
 SORT2 READ      162667. AND WROTE      177310. INTEGRALS IN      4 RECORDS. CPU TIME:     0.02 SEC, REAL TIME:     0.03 SEC

 FILE SIZES:   FILE 1:    31.1 MBYTE,  FILE 4:     4.2 MBYTE,   TOTAL:     35.3 MBYTE

 OPERATOR DM      FOR CENTER  0  COORDINATES:    0.000000    0.000000    0.000000


 **********************************************************************************************************************************
 DATASETS  * FILE   NREC   LENGTH (MB)   RECORD NAMES
              1      19       29.39       500      610      700      900      950      970     1000      129      960     1100   
                                          VAR    BASINP    GEOM    SYMINP    ZMAT    AOBASIS   BASIS     P2S    ABASIS      S 
                                         1400     1410     1200     1210     1080     1600     1650     1300     1700   
                                           T        V       H0       H01     AOSYM     SMH    MOLCAS    ERIS     OPER   

 PROGRAMS   *        TOTAL       INT
 CPU TIMES  *         0.40      0.24
 REAL TIME  *         0.84 SEC
 DISK USED  *        34.01 MB
 **********************************************************************************************************************************

 PROGRAM * MULTI (Direct Multiconfiguration SCF)       Authors: P.J. Knowles, H.-J. Werner (1984)
                                                                D.A. Kreplin, P.J. Knowles, H.-J. Werner (2019)

 Number of closed-shell orbitals:   4 (   4 )
 Number of active  orbitals:        2 (   2 )
 Number of external orbitals:      28 (  28 )

 State symmetry 1

 Number of active electrons:   2    Spin symmetry=Singlet   Space symmetry=1
 Number of states:             1
 Number of CSFs:               3   (4 determinants, 4 intermediate states)

 Orbital guess generated from atomic densities. Full valence occupancy:    9

 Wavefunction dump at record             2140.2

 Convergence thresholds  0.10E-04 (gradient)  0.10E-05 (energy)
 
 Number of orbital rotations:  176  ( 8 closed/active, 112 closed/virtual, 0 active/active, 56 active/virtual )
 Total number of variables:    180
 
  Second-order MCSCF: L-BFGS accelerated
 
 ITER  MIC  NCI  NEG     ENERGY(VAR)    ENERGY(PROJ) ENERGY CHANGE       GRAD(0)  GRAD(ORB)   GRAD(CI)      STEP      TIME
   1    5    4    0    -40.04245251     -40.05879548   -0.01634296    0.14666570 0.00019725 0.00000000  0.13E+00      0.09
   2    5    4    0    -40.05876425     -40.05876642   -0.00000217    0.00207088 0.00000019 0.00000000  0.12E-02      0.19
   3    3    3    0    -40.05876642     -40.05876642   -0.00000000    0.00000080 0.00000001 0.00000000  0.45E-06      0.25

 CONVERGENCE REACHED!  Final gradient:    0.00000000 ( 0.13E-08)
                       Final energy:    -40.05876642
 
 First order charge density matrix for state 1.1 saved on record 2140.2 (density set 1)
 
 Results for state 1.1
 =====================
 !MCSCF STATE 1.1 Energy                       -40.058766419050
 Nuclear energy                                 10.89395617
 Kinetic energy                                 39.99735919
 One electron energy                           -74.49706983
 Two electron energy                            23.54434725
 Virial ratio                                    2.00153528
 
 !MCSCF STATE 1.1 Dipole moment                 -0.00085368     0.00113260    -0.00146189
 Dipole moment /Debye                           -0.00216983     0.00287878    -0.00371575
 
 No non-zero expectation values
 
 
 Natural orbital dump at molpro section 2140.2 (Orbital set 2)


 **********************************************************************************************************************************
 DATASETS  * FILE   NREC   LENGTH (MB)   RECORD NAMES
              1      20       29.69       500      610      700      900      950      970     1000      129      960     1100   
                                          VAR    BASINP    GEOM    SYMINP    ZMAT    AOBASIS   BASIS     P2S    ABASIS      S 
                                         1400     1410     1200     1210     1080     1600     1650     1300     1700     1380   
                                           T        V       H0       H01     AOSYM     SMH    MOLCAS    ERIS     OPER     JKOP   

              2       4        2.72       700     1000      520     2140   
                                         GEOM     BASIS   MCVARS    MCSCF   

 PROGRAMS   *        TOTAL     MULTI       INT
 CPU TIMES  *         0.62      0.22      0.24
 REAL TIME  *         1.21 SEC
 DISK USED  *        34.01 MB
 **********************************************************************************************************************************


 PROGRAM * RS2 (Multireference RS Perturbation Theory)     Authors: H.-J. Werner (1993), P. Celani (1998)


 Level shift= 0.20

 Convergence thresholds:  THRVAR = 1.00D-08  THRDEN = 1.00D-06

 Number of optimized states: 1  Roots:    1
 Number of reference states: 1  Roots:    1

 Reference symmetry:                   1   Singlet 
 Number of electrons:                 10
 Maximum number of shells:             4
 Maximum number of spin couplings:     5

 Reference space:        3 conf        3 CSFs
 N elec internal:       15 conf       15 CSFs
 N-1 el internal:       23 conf       32 CSFs
 N-2 el internal:       25 conf       52 CSFs

 Number of electrons in valence space:                      8
 Maximum number of open shell orbitals in reference space:  2
 Maximum number of open shell orbitals in internal spaces:  6


 Number of core orbitals:           1 (   1 )
 Number of closed-shell orbitals:   3 (   3 )
 Number of active  orbitals:        2 (   2 )
 Number of external orbitals:      28 (  28 )

 Molecular orbitals read from record     2140.2  Type=MCSCF/NATURAL (state 1.1)

 Integral transformation finished. Total CPU:   0.00 sec, npass=  1  Memory used:   0.11 MW


 Number of p-space configurations:   3

 Reference wavefunction optimized for reference space (refopt=1)

 State     Reference Energy 
     1       -40.05876642

 Number of blocks in overlap matrix:     2   Smallest eigenvalue:  0.10D+01
 Number of N-2 electron functions:      22
 Number of N-1 electron functions:      32

 Number of internal configurations:                   15
 Number of singly external configurations:           896
 Number of doubly external configurations:          8680
 Total number of contracted configurations:         9591
 Total number of uncontracted configurations:      21351

 Weight factors for SA-density in H0:    1.000000

 FIMAX=  0.42D-01  FXMAX=  0.38D-13  DIAG=  F  T  NOREF=1  NOINT=0  IHPPD=2

 Nuclear energy:                      10.89395617
 Core energy:                        -35.57000632
 Zeroth-order valence energy:         -4.36928104
 Zeroth-order total energy:          -29.04533120
 First-order energy:                 -11.01343522

 Using uncontracted singles

 Diagonal Coupling coefficients finished.               Storage:     883 words, CPU-Time:      0.00 seconds.
 Energy denominators for pairs finished in 0 passes.    Storage:    2295 words, CPU-time:      0.00 seconds.

 A level shift of 0.20 is applied.

  ITER. STATE  ROOT     SQ.NORM     CORR.ENERGY   TOTAL ENERGY   ENERGY CHANGE       DEN1      VAR(S)    VAR(P)      TIME
    1     1     1     1.00518016    -0.00103603   -40.05980245    -0.00103603    -0.12596172  0.52D-02  0.36D-01     0.02
    2     1     1     1.04128840    -0.13399338   -40.19275979    -0.13295734     0.00013186  0.16D-04  0.70D-05     0.02
    3     1     1     1.04126348    -0.13402848   -40.19279490    -0.00003510    -0.00001999  0.39D-07  0.46D-07     0.03
    4     1     1     1.04128168    -0.13403227   -40.19279869    -0.00000379     0.00000024  0.46D-09  0.10D-09     0.03
    5     1     1     1.04128167    -0.13403227   -40.19279868     0.00000000    -0.00000006  0.11D-11  0.16D-11     0.03

 Energies without level shift correction:

    5     1     1     1.04128167    -0.12577593   -40.18454235

 Energy contributions for state 1.1:
 ===================================

            Energy contr.      SQ.Norm of FOWF
 Space I     -0.00000001          0.00000018
 Space S     -0.01126950          0.00508460
 Space P     -0.11450643          0.03619689


 =====================================
 Analysis of CPU times by interactions
 =====================================

       I      S      P

 I   0.0%
 S   0.0%   0.0%
 P   0.0%   0.0%  33.3%

 Initialization:  66.7%
 Other:            0.0%

 Total CPU:        0.0 seconds
 =====================================



 gnormi=  1.00000018  gnorms=  0.00508460  gnormp=  0.03619689  gnorm=  1.04128167
 ecorri= -0.00000001  ecorrs= -0.01126950  ecorrp= -0.11450643  ecorr= -0.13403227

 Reference coefficients greater than 0.0500000
 =============================================
 22220           0.7077773
 22202          -0.7064356


 RESULTS FOR STATE 1.1
 =====================

 Coefficient of reference function:   C(0) = 1.00000000 (fixed)   1.00000000 (relaxed)

 Energy contributions of configuration classes

 CLASS          SQ.NORM        ECORR1        ECORR2
 +++++++++++++++++++++++++++++++++++++++++++++++++++
 Internals    0.00000018   -0.00000001    0.13403225
 Singles      0.00508460   -0.01126950   -0.02401853
 Pairs        0.03619689   -0.11450643   -0.24404598
 Total        1.04128167   -0.12577593   -0.13403227
 +++++++++++++++++++++++++++++++++++++++++++++++++++


 Reference energy                     -40.05876642
 Nuclear energy                        10.89395617
 Kinetic energy                        40.08797787
 One electron energy                  -74.43195696
 Two electron energy                   23.34520211
 Virial quotient                       -1.00261477
 Correlation energy                    -0.13403227
 !RSPT2 STATE 1.1 Energy              -40.192798684204

 Properties without orbital relaxation:

 !RSPT2 STATE 1.1 Dipole moment        -0.00089207     0.00122665    -0.00149607
 Dipole moment /Debye                  -0.00226743     0.00311782    -0.00380264


 **********************************************************************************************************************************
 DATASETS  * FILE   NREC   LENGTH (MB)   RECORD NAMES
              1      20       29.69       500      610      700      900      950      970     1000      129      960     1100   
                                          VAR    BASINP    GEOM    SYMINP    ZMAT    AOBASIS   BASIS     P2S    ABASIS      S 
                                         1400     1410     1200     1210     1080     1600     1650     1300     1700     1380   
                                           T        V       H0       H01     AOSYM     SMH    MOLCAS    ERIS     OPER     JKOP   

              2       4        2.72       700     1000      520     2140   
                                         GEOM     BASIS   MCVARS    MCSCF   

 PROGRAMS   *        TOTAL       RS2     MULTI       INT
 CPU TIMES  *         0.69      0.07      0.22      0.24
 REAL TIME  *         1.37 SEC
 DISK USED  *        34.01 MB
 **********************************************************************************************************************************
 SETTING MOLPRO_ENERGY  =     6.64857959D-05  AU                              

 RS2/cc-pVDZ energy=    -40.192798684204

             RS2           MULTI
    -40.19279868    -40.05876642
 **********************************************************************************************************************************
 Molpro calculation terminated
