
 Working directory              : /scratch/cc//molpro.9y7Thzi6Qs/
 Global scratch directory       : /scratch/cc//molpro.9y7Thzi6Qs/
 Wavefunction directory         : /home/chimica2/cavallotti/wfu/
 Main file repository           : /scratch/cc//molpro.9y7Thzi6Qs/

 id        : polimi

 Nodes     nprocs
 node-6-10    1
 Distribution of processes:   nprocs(total)=    2   nprocs(compute)=    1   nprocs(helper)=    1
 GA implementation: MPI file
 GA implementation (serial work in mppx): MPI file

 Using customized tuning parameters: mindgm=1; mindgv=20; mindgc=4; mindgr=1; noblas=0; minvec=7
 default implementation of scratch files=df  


 Variables initialized (1009), CPU time= 0.00 sec
  memory,         400 ,m
 
 symmetry, nosym; orient, noorient
 angstrom
 geomtyp=xyz
 geometry={
 5
 rotational dynamics
 C, -0.00836442, -0.2491, 0.0151749
 H, -0.796192, -0.0931209, -0.70421
 H, 0.997564, 0.0664969, -0.210711
 H, -0.226841, -0.717664, 0.961345
 H, 0.125062, 3.71028, -0.227109
 }
 
  basis=cc-pvdz
  {multi;closed, 4;occ, 6;wf, 10,1,0,;state,1;maxiter,40}
  if (iterations.ge.0) then
     {rs2,shift=0.2;orbital,IGNORE_ERROR;state,1}
     molpro_energy = energy +   40.192865169999997
  else
     molpro_energy = 10.0
  endif
 Commands initialized (810), CPU time= 0.01 sec, 661 directives.
 Default parameters read. Elapsed time= 0.20 sec

 Checking input...
 Passed
1


                                         ***  PROGRAM SYSTEM MOLPRO  ***
                                       Copyright, TTI GmbH Stuttgart, 2015
                                    Version 2021.2 linked Jun  2 2021 16:00:59


 **********************************************************************************************************************************
 LABEL *                                                                                 
  64 bit serial version                                                                  DATE: 03-Jun-23          TIME: 09:16:08  
 **********************************************************************************************************************************

 SHA1:             1987c3f1b0c3ae76932bc24993909f2d7ae6b1f1
 **********************************************************************************************************************************

 Memory per process:       400 MW
 Total memory per node:    400 MW

 GA preallocation disabled
 GA check disabled

 Variable memory set to 400.0 MW

 SETTING GEOMTYP        =    XYZ
 ZSYMEL=NOSYM
 ZUNIT=ANG

 SETTING BASIS          =    CC-PVDZ


 Recomputing integrals since basis changed


 Using spherical harmonics

 Library entry C      S cc-pVDZ              selected for orbital group  1
 Library entry C      P cc-pVDZ              selected for orbital group  1
 Library entry C      D cc-pVDZ              selected for orbital group  1
 Library entry H      S cc-pVDZ              selected for orbital group  2
 Library entry H      P cc-pVDZ              selected for orbital group  2


 PROGRAM * SEWARD (Integral evaluation for generally contracted gaussian basis sets)     Author: Roland Lindh, 1990

 Geometry written to block  1 of record 700


 Point group  C1  



 ATOMIC COORDINATES

 NR  ATOM    CHARGE       X              Y              Z

   1  C       6.00   -0.015806463   -0.470730778    0.028676405
   2  H       1.00   -1.504584823   -0.175972997   -1.330764034
   3  H       1.00    1.885122752    0.125660929   -0.398186081
   4  H       1.00   -0.428667364   -1.356188410    1.816678761
   5  H       1.00    0.236332929    7.011413046   -0.429173810

 Bond lengths in Bohr (Angstrom)

 1-2  2.037503733  1-3  2.037504977  1-4  2.037508716
     ( 1.078200542)     ( 1.078201201)     ( 1.078203179)

 Bond angles

  2-1-3  119.97235484   2-1-4  120.02078427   3-1-4  120.00658190

 NUCLEAR CHARGE:                   10
 NUMBER OF PRIMITIVE AOS:          55
 NUMBER OF SYMMETRY AOS:           54
 NUMBER OF CONTRACTIONS:           34   (   34A   )
 NUMBER OF INNER CORE ORBITALS:     0   (    0A   )
 NUMBER OF OUTER CORE ORBITALS:     1   (    1A   )
 NUMBER OF VALENCE ORBITALS:        8   (    8A   )


 NUCLEAR REPULSION ENERGY   10.87492161


 Eigenvalues of metric

         1 0.150E-01 0.352E-01 0.352E-01 0.421E-01 0.542E-01 0.542E-01 0.943E-01 0.122E+00


 Contracted 2-electron integrals neglected if value below      1.0D-11
 AO integral compression algorithm  1   Integral accuracy      1.0D-11

     1.049 MB (compressed) written to integral file ( 64.2%)


 NUMBER OF SORTED TWO-ELECTRON INTEGRALS:     177310.     BUFFER LENGTH:  32768
 NUMBER OF SEGMENTS:   1  SEGMENT LENGTH:     177310      RECORD LENGTH: 524288

 Memory used in sort:       0.73 MW

 SORT1 READ      212999. AND WROTE      162921. INTEGRALS IN      1 RECORDS. CPU TIME:     0.00 SEC, REAL TIME:     0.03 SEC
 SORT2 READ      162921. AND WROTE      177310. INTEGRALS IN      4 RECORDS. CPU TIME:     0.03 SEC, REAL TIME:     0.04 SEC

 FILE SIZES:   FILE 1:    31.1 MBYTE,  FILE 4:     4.2 MBYTE,   TOTAL:     35.3 MBYTE

 OPERATOR DM      FOR CENTER  0  COORDINATES:    0.000000    0.000000    0.000000


 **********************************************************************************************************************************
 DATASETS  * FILE   NREC   LENGTH (MB)   RECORD NAMES
              1      19       29.38       500      610      700      900      950      970     1000      129      960     1100   
                                          VAR    BASINP    GEOM    SYMINP    ZMAT    AOBASIS   BASIS     P2S    ABASIS      S 
                                         1400     1410     1200     1210     1080     1600     1650     1300     1700   
                                           T        V       H0       H01     AOSYM     SMH    MOLCAS    ERIS     OPER   

 PROGRAMS   *        TOTAL       INT
 CPU TIMES  *         0.42      0.26
 REAL TIME  *         1.02 SEC
 DISK USED  *        34.01 MB
 **********************************************************************************************************************************

 PROGRAM * MULTI (Direct Multiconfiguration SCF)       Authors: P.J. Knowles, H.-J. Werner (1984)
                                                                D.A. Kreplin, P.J. Knowles, H.-J. Werner (2019)

 Number of closed-shell orbitals:   4 (   4 )
 Number of active  orbitals:        2 (   2 )
 Number of external orbitals:      28 (  28 )

 State symmetry 1

 Number of active electrons:   2    Spin symmetry=Singlet   Space symmetry=1
 Number of states:             1
 Number of CSFs:               3   (4 determinants, 4 intermediate states)

 Orbital guess generated from atomic densities. Full valence occupancy:    9

 Wavefunction dump at record             2140.2

 Convergence thresholds  0.10E-04 (gradient)  0.10E-05 (energy)
 
 Number of orbital rotations:  176  ( 8 closed/active, 112 closed/virtual, 0 active/active, 56 active/virtual )
 Total number of variables:    180
 
  Second-order MCSCF: L-BFGS accelerated
 
 ITER  MIC  NCI  NEG     ENERGY(VAR)    ENERGY(PROJ) ENERGY CHANGE       GRAD(0)  GRAD(ORB)   GRAD(CI)      STEP      TIME
   1    5    4    0    -40.04375661     -40.05916304   -0.01540643    0.14525542 0.00001695 0.00000000  0.13E+00      0.14
   2    7    6    0    -40.05913521     -40.05913675   -0.00000154    0.00180338 0.00000003 0.00000000  0.98E-03      0.27
   3    3    3    0    -40.05913675     -40.05913675   -0.00000000    0.00000053 0.00000000 0.00000000  0.28E-06      0.36

 CONVERGENCE REACHED!  Final gradient:    0.00000000 ( 0.47E-09)
                       Final energy:    -40.05913675
 
 First order charge density matrix for state 1.1 saved on record 2140.2 (density set 1)
 
 Results for state 1.1
 =====================
 !MCSCF STATE 1.1 Energy                       -40.059136751687
 Nuclear energy                                 10.87492161
 Kinetic energy                                 39.99391170
 One electron energy                           -74.45965336
 Two electron energy                            23.52559500
 Virial ratio                                    2.00163087
 
 !MCSCF STATE 1.1 Dipole moment                 -0.00019770    -0.00700241     0.00034286
 Dipole moment /Debye                           -0.00050250    -0.01779835     0.00087146
 
 No non-zero expectation values
 
 
 Natural orbital dump at molpro section 2140.2 (Orbital set 2)


 **********************************************************************************************************************************
 DATASETS  * FILE   NREC   LENGTH (MB)   RECORD NAMES
              1      20       29.68       500      610      700      900      950      970     1000      129      960     1100   
                                          VAR    BASINP    GEOM    SYMINP    ZMAT    AOBASIS   BASIS     P2S    ABASIS      S 
                                         1400     1410     1200     1210     1080     1600     1650     1300     1700     1380   
                                           T        V       H0       H01     AOSYM     SMH    MOLCAS    ERIS     OPER     JKOP   

              2       4        2.72       700     1000      520     2140   
                                         GEOM     BASIS   MCVARS    MCSCF   

 PROGRAMS   *        TOTAL     MULTI       INT
 CPU TIMES  *         0.66      0.24      0.26
 REAL TIME  *         1.53 SEC
 DISK USED  *        34.01 MB
 **********************************************************************************************************************************


 PROGRAM * RS2 (Multireference RS Perturbation Theory)     Authors: H.-J. Werner (1993), P. Celani (1998)


 Level shift= 0.20

 Convergence thresholds:  THRVAR = 1.00D-08  THRDEN = 1.00D-06

 Number of optimized states: 1  Roots:    1
 Number of reference states: 1  Roots:    1

 Reference symmetry:                   1   Singlet 
 Number of electrons:                 10
 Maximum number of shells:             4
 Maximum number of spin couplings:     5

 Reference space:        3 conf        3 CSFs
 N elec internal:       15 conf       15 CSFs
 N-1 el internal:       23 conf       32 CSFs
 N-2 el internal:       25 conf       52 CSFs

 Number of electrons in valence space:                      8
 Maximum number of open shell orbitals in reference space:  2
 Maximum number of open shell orbitals in internal spaces:  6


 Number of core orbitals:           1 (   1 )
 Number of closed-shell orbitals:   3 (   3 )
 Number of active  orbitals:        2 (   2 )
 Number of external orbitals:      28 (  28 )

 Molecular orbitals read from record     2140.2  Type=MCSCF/NATURAL (state 1.1)

 Integral transformation finished. Total CPU:   0.00 sec, npass=  1  Memory used:   0.11 MW


 Number of p-space configurations:   3

 Reference wavefunction optimized for reference space (refopt=1)

 State     Reference Energy 
     1       -40.05913675

 Number of blocks in overlap matrix:     2   Smallest eigenvalue:  0.10D+01
 Number of N-2 electron functions:      22
 Number of N-1 electron functions:      32

 Number of internal configurations:                   15
 Number of singly external configurations:           896
 Number of doubly external configurations:          8680
 Total number of contracted configurations:         9591
 Total number of uncontracted configurations:      21351

 Weight factors for SA-density in H0:    1.000000

 FIMAX=  0.40D-01  FXMAX=  0.25D-13  DIAG=  F  T  NOREF=1  NOINT=0  IHPPD=2

 Nuclear energy:                      10.87492161
 Core energy:                        -35.56999275
 Zeroth-order valence energy:         -4.36985691
 Zeroth-order total energy:          -29.06492804
 First-order energy:                 -10.99420871

 Using uncontracted singles

 Diagonal Coupling coefficients finished.               Storage:     883 words, CPU-Time:      0.00 seconds.
 Energy denominators for pairs finished in 0 passes.    Storage:    2295 words, CPU-time:      0.00 seconds.

 A level shift of 0.20 is applied.

  ITER. STATE  ROOT     SQ.NORM     CORR.ENERGY   TOTAL ENERGY   ENERGY CHANGE       DEN1      VAR(S)    VAR(P)      TIME
    1     1     1     1.00521594    -0.00104319   -40.06017994    -0.00104319    -0.12594311  0.52D-02  0.36D-01     0.02
    2     1     1     1.04132004    -0.13400080   -40.19313755    -0.13295761     0.00012114  0.17D-04  0.72D-05     0.02
    3     1     1     1.04130016    -0.13403805   -40.19317480    -0.00003725    -0.00002062  0.52D-07  0.51D-07     0.02
    4     1     1     1.04131918    -0.13404203   -40.19317879    -0.00000398     0.00000012  0.77D-09  0.16D-09     0.02
    5     1     1     1.04131927    -0.13404205   -40.19317880    -0.00000002    -0.00000007  0.60D-11  0.32D-11     0.02

 Energies without level shift correction:

    5     1     1     1.04131927    -0.12577820   -40.18491495

 Energy contributions for state 1.1:
 ===================================

            Energy contr.      SQ.Norm of FOWF
 Space I     -0.00000667          0.00000453
 Space S     -0.01132274          0.00513725
 Space P     -0.11444878          0.03617749


 =====================================
 Analysis of CPU times by interactions
 =====================================

       I      S      P

 I   0.0%
 S   0.0%   0.0%
 P   0.0%   0.0%   0.0%

 Initialization:  50.0%
 Other:           50.0%

 Total CPU:        0.0 seconds
 =====================================



 gnormi=  1.00000453  gnorms=  0.00513725  gnormp=  0.03617749  gnorm=  1.04131927
 ecorri= -0.00000667  ecorrs= -0.01132274  ecorrp= -0.11444878  ecorr= -0.13404205

 Reference coefficients greater than 0.0500000
 =============================================
 22220           0.7301173
 22202          -0.6833218


 RESULTS FOR STATE 1.1
 =====================

 Coefficient of reference function:   C(0) = 1.00000000 (fixed)   1.00000000 (relaxed)

 Energy contributions of configuration classes

 CLASS          SQ.NORM        ECORR1        ECORR2
 +++++++++++++++++++++++++++++++++++++++++++++++++++
 Internals    0.00000453   -0.00000667    0.13402783
 Singles      0.00513725   -0.01132274   -0.02413333
 Pairs        0.03617749   -0.11444878   -0.24393655
 Total        1.04131927   -0.12577820   -0.13404205
 +++++++++++++++++++++++++++++++++++++++++++++++++++


 Reference energy                     -40.05913675
 Nuclear energy                        10.87492161
 Kinetic energy                        40.08483077
 One electron energy                  -74.39493815
 Two electron energy                   23.32683773
 Virial quotient                       -1.00270297
 Correlation energy                    -0.13404205
 !RSPT2 STATE 1.1 Energy              -40.193178803752

 Properties without orbital relaxation:

 !RSPT2 STATE 1.1 Dipole moment        -0.00019892    -0.00730669     0.00034128
 Dipole moment /Debye                  -0.00050560    -0.01857174     0.00086746


 **********************************************************************************************************************************
 DATASETS  * FILE   NREC   LENGTH (MB)   RECORD NAMES
              1      20       29.68       500      610      700      900      950      970     1000      129      960     1100   
                                          VAR    BASINP    GEOM    SYMINP    ZMAT    AOBASIS   BASIS     P2S    ABASIS      S 
                                         1400     1410     1200     1210     1080     1600     1650     1300     1700     1380   
                                           T        V       H0       H01     AOSYM     SMH    MOLCAS    ERIS     OPER     JKOP   

              2       4        2.72       700     1000      520     2140   
                                         GEOM     BASIS   MCVARS    MCSCF   

 PROGRAMS   *        TOTAL       RS2     MULTI       INT
 CPU TIMES  *         0.73      0.07      0.24      0.26
 REAL TIME  *         1.68 SEC
 DISK USED  *        34.01 MB
 **********************************************************************************************************************************
 SETTING MOLPRO_ENERGY  =        -0.00031363  AU                              

 RS2/cc-pVDZ energy=    -40.193178803752

             RS2           MULTI
    -40.19317880    -40.05913675
 **********************************************************************************************************************************
 Molpro calculation terminated
