 Entering Gaussian System, Link 0=g09
 Input=geom.com
 Output=geom.log
 Initial command:
 /programs/64bit/g09/g09-gfortran/bin/l1.exe /data/scratch/Gau-26740.inp -scrdir=/data/scratch/
 Entering Link 1 = /programs/64bit/g09/g09-gfortran/bin/l1.exe PID=     26741.
  
 Copyright (c) 1988,1990,1992,1993,1995,1998,2003,2009, Gaussian, Inc.
                  All Rights Reserved.
  
 This is part of the Gaussian(R) 09 program.  It is based on
 the Gaussian(R) 03 system (copyright 2003, Gaussian, Inc.),
 the Gaussian(R) 98 system (copyright 1998, Gaussian, Inc.),
 the Gaussian(R) 94 system (copyright 1995, Gaussian, Inc.),
 the Gaussian 92(TM) system (copyright 1992, Gaussian, Inc.),
 the Gaussian 90(TM) system (copyright 1990, Gaussian, Inc.),
 the Gaussian 88(TM) system (copyright 1988, Gaussian, Inc.),
 the Gaussian 86(TM) system (copyright 1986, Carnegie Mellon
 University), and the Gaussian 82(TM) system (copyright 1983,
 Carnegie Mellon University). Gaussian is a federally registered
 trademark of Gaussian, Inc.
  
 This software contains proprietary and confidential information,
 including trade secrets, belonging to Gaussian, Inc.
  
 This software is provided under written license and may be
 used, copied, transmitted, or stored only in accord with that
 written license.
  
 The following legend is applicable only to US Government
 contracts under FAR:
  
                    RESTRICTED RIGHTS LEGEND
  
 Use, reproduction and disclosure by the US Government is
 subject to restrictions as set forth in subparagraphs (a)
 and (c) of the Commercial Computer Software - Restricted
 Rights clause in FAR 52.227-19.
  
 Gaussian, Inc.
 340 Quinnipiac St., Bldg. 40, Wallingford CT 06492
  
  
 ---------------------------------------------------------------
 Warning -- This program may not be used in any manner that
 competes with the business of Gaussian, Inc. or will provide
 assistance to any competitor of Gaussian, Inc.  The licensee
 of this program is prohibited from giving any competitor of
 Gaussian, Inc. access to this program.  By using this program,
 the user acknowledges that Gaussian, Inc. is engaged in the
 business of creating and licensing software in the field of
 computational chemistry and represents and warrants to the
 licensee that it is not a competitor of Gaussian, Inc. and that
 it will not use this program in any manner prohibited above.
 ---------------------------------------------------------------
  

 Cite this work as:
 Gaussian 09, Revision A.02,
 M. J. Frisch, G. W. Trucks, H. B. Schlegel, G. E. Scuseria, 
 M. A. Robb, J. R. Cheeseman, G. Scalmani, V. Barone, B. Mennucci, 
 G. A. Petersson, H. Nakatsuji, M. Caricato, X. Li, H. P. Hratchian, 
 A. F. Izmaylov, J. Bloino, G. Zheng, J. L. Sonnenberg, M. Hada, 
 M. Ehara, K. Toyota, R. Fukuda, J. Hasegawa, M. Ishida, T. Nakajima, 
 Y. Honda, O. Kitao, H. Nakai, T. Vreven, J. A. Montgomery, Jr., 
 J. E. Peralta, F. Ogliaro, M. Bearpark, J. J. Heyd, E. Brothers, 
 K. N. Kudin, V. N. Staroverov, R. Kobayashi, J. Normand, 
 K. Raghavachari, A. Rendell, J. C. Burant, S. S. Iyengar, J. Tomasi, 
 M. Cossi, N. Rega, J. M. Millam, M. Klene, J. E. Knox, J. B. Cross, 
 V. Bakken, C. Adamo, J. Jaramillo, R. Gomperts, R. E. Stratmann, 
 O. Yazyev, A. J. Austin, R. Cammi, C. Pomelli, J. W. Ochterski, 
 R. L. Martin, K. Morokuma, V. G. Zakrzewski, G. A. Voth, 
 P. Salvador, J. J. Dannenberg, S. Dapprich, A. D. Daniels, 
 O. Farkas, J. B. Foresman, J. V. Ortiz, J. Cioslowski, 
 and D. J. Fox, Gaussian, Inc., Wallingford CT, 2009.
 
 ******************************************
 Gaussian 09:  EM64L-G09RevA.02 11-Jun-2009
                 6-Apr-2017 
 ******************************************
 %mem=200MW
 %chk=tmp
 %NProcShared= 12
 Will use up to   12 processors via shared memory.
 ----------------------------------------------------------------------
 # m062x/6-311+g(d,p) irc(forward,calcall,stepsize=3,maxpoints=10) # in
 t=ultrafine nosym iop(7/33=1)
 ----------------------------------------------------------------------
 1/10=4,14=-1,18=20,22=1,26=3,38=1,39=3,42=10,44=3,71=1/1,23;
 2/9=110,12=2,15=1,17=6,18=5,29=1,40=1/2;
 3/5=4,6=6,7=111,11=2,16=1,25=1,30=1,71=2,74=-55,75=-5/1,2,3;
 4//1;
 5/5=2,38=5/2;
 8/6=4,10=90,11=11/1;
 11/6=1,8=1,9=11,15=111,16=1,31=1/1,2,10;
 10/6=1,31=1/2;
 6/7=2,8=2,9=2,10=2,18=1,28=1/1;
 7/10=1,25=1,30=1,33=1/1,2,3,16;
 1/10=4,14=-1,18=20,22=1,39=3,42=10,44=3,71=1/23(3);
 2/9=110,15=1,29=1/2;
 7/8=1,9=1,25=1,30=1,33=1,44=-1/16;
 99//99;
 2/9=110,15=1,29=1/2;
 3/5=4,6=6,7=111,11=2,16=1,25=1,30=1,71=2,74=-55,75=-5/1,2,3;
 4/5=5,16=3/1;
 5/5=2,38=5/2;
 8/6=4,10=90,11=11/1;
 11/6=1,8=1,9=11,15=111,16=1,31=1/1,2,10;
 10/6=1,31=1/2;
 7/10=1,25=1,30=1,33=1/1,2,3,16;
 1/10=4,14=-1,18=20,22=1,39=3,42=10,44=3,71=1/23(-8);
 2/9=110,15=1,29=1/2;
 6/7=2,8=2,9=2,10=2,18=1,19=2,28=1/1;
 7/8=1,9=1,25=1,30=1,33=1,44=-1/16;
 99//99;
 ------
 geom 0
 ------
 Symbolic Z-matrix:
 Charge =  0 Multiplicity = 2
 c1
 c2                   c1   rcc1
 h3                   c1   rch1     c2   ahcc1
 h4                   c1   rch2     c2   ahcc2    h3   b1       0
 h5                   c2   rch3     c1   ahcc3    h3   b2       0
 h6                   c2   rch4     c1   ahcc4    h5   b3       0
 H1                   2    rts      1    aabs1    3    babs1    0
       Variables:
  RCC1                  1.3386                   
  RCH1                  1.0834                   
  RCH2                  1.0834                   
  RCH3                  1.0839                   
  RCH4                  1.0839                   
  AHCC1               121.4578                   
  AHCC2               121.4575                   
  AHCC3               121.3486                   
  AHCC4               121.3505                   
  B1                  181.9256                   
  B2                   -5.5298                   
  B3                  189.1441                   
  AABS1               106.585                    
  BABS1                89.0772                   
  RTS                   1.9963                   
 
 IRC-IRC-IRC-IRC-IRC-IRC-IRC-IRC-IRC-IRC-IRC-IRC-IRC-IRC-IRC-IRC-IRC-IRC
 ------------------------------------------------------------------------
 INPUT DATA FOR L123
 ------------------------------------------------------------------------
 GENERAL PARAMETERS:
 Rxn path following direction = Forward
 Maximum points per path      =  10
 Step size                    =   0.030 bohr
 Integration scheme           = HPC                                 
    Redo corrector integration= Yes                                 
    Max correction cycles     =  20
 Initial Hessian              = CalcFC
 Hessian evaluation           = Full Hessian always
 ------------------------------------------------------------------------
 IRC-IRC-IRC-IRC-IRC-IRC-IRC-IRC-IRC-IRC-IRC-IRC-IRC-IRC-IRC-IRC-IRC-IRC
                          Input orientation:                          
 ---------------------------------------------------------------------
 Center     Atomic      Atomic             Coordinates (Angstroms)
 Number     Number       Type             X           Y           Z
 ---------------------------------------------------------------------
      1          6           0        0.000000    0.000000    0.000000
      2          6           0        0.000000    0.000000    1.338600
      3          1           0        0.924167    0.000000   -0.565394
      4          1           0       -0.923648    0.031054   -0.565390
      5          1           0        0.921362   -0.089201    1.902492
      6          1           0       -0.923810   -0.058353    1.902523
      7          1           0        0.030813    1.913000    1.908419
 ---------------------------------------------------------------------
                    Distance matrix (angstroms):
                    1          2          3          4          5
     1  C    0.000000
     2  C    1.338600   0.000000
     3  H    1.083400   2.116431   0.000000
     4  H    1.083400   2.116428   1.848076   0.000000
     5  H    2.115737   1.083900   2.469500   3.083661   0.000000
     6  H    2.115756   1.083900   3.083673   2.469531   1.845430
     7  H    2.702329   1.996300   3.252292   3.251530   2.191329
                    6          7
     6  H    0.000000
     7  H    2.190336   0.000000
 Symmetry turned off by external request.
 Stoichiometry    C2H5(2)
 Framework group  C1[X(C2H5)]
 Deg. of freedom    15
 Full point group                 C1      NOp   1
 Rotational constants (GHZ):     75.0326543     23.0021502     22.8575572
 Standard basis: 6-311+G(d,p) (5D, 7F)
 Integral buffers will be    131072 words long.
 Raffenetti 2 integral format.
 Two-electron integral symmetry is turned off.
    74 basis functions,   112 primitive gaussians,    76 cartesian basis functions
     9 alpha electrons        8 beta electrons
       nuclear repulsion energy        36.8720356111 Hartrees.
 NAtoms=    7 NActive=    7 NUniq=    7 SFac= 7.50D-01 NAtFMM=   80 NAOKFM=F Big=F
 One-electron integrals computed using PRISM.
 NBasis=    74 RedAO= T  NBF=    74
 NBsUse=    74 1.00D-06 NBFU=    74
 Harris functional with IExCor= 1009 diagonalized for initial guess.
 ExpMin= 4.38D-02 ExpMax= 4.56D+03 ExpMxC= 6.82D+02 IAcc=3 IRadAn=         5 AccDes= 0.00D+00
 HarFok:  IExCor= 1009 AccDes= 0.00D+00 IRadAn=         5 IDoV= 1
 ScaDFX=  1.000000  1.000000  1.000000  1.000000
 FoFCou: FMM=F IPFlag=           0 FMFlag=      100000 FMFlg1=           0
         NFxFlg=           0 DoJE=T BraDBF=F KetDBF=T FulRan=T
         Omega=  0.000000  0.000000  1.000000  0.000000  0.000000 ICntrl=     500 IOpCl=  0
         NMat0=    1 NMatS0=    1 NMatT0=    0 NMatD0=    1 NMtDS0=    0 NMtDT0=    0
         I1Cent=           4 NGrid=           0.
 Symmetry not used in FoFCou.
 Initial guess <Sx>= 0.0000 <Sy>= 0.0000 <Sz>= 0.5000 <S**2>= 0.7500 S= 0.5000
 Requested convergence on RMS density matrix=1.00D-08 within 128 cycles.
 Requested convergence on MAX density matrix=1.00D-06.
 Requested convergence on             energy=1.00D-06.
 No special actions if energy rises.
 Keep R1 and R2 ints in memory in canonical form, NReq=9662670.
 SCF Done:  E(UM062X) =  -79.0571474830     A.U. after   15 cycles
             Convg  =    0.1389D-08             -V/T =  2.0046
 <Sx>= 0.0000 <Sy>= 0.0000 <Sz>= 0.5000 <S**2>= 0.7661 S= 0.5080
 <L.S>=  0.00000000000    
 Annihilation of the first spin contaminant:
 S**2 before annihilation     0.7661,   after     0.7500
 Range of M.O.s used for correlation:     1    74
 NBasis=    74 NAE=     9 NBE=     8 NFC=     0 NFV=     0
 NROrb=     74 NOA=     9 NOB=     8 NVA=    65 NVB=    66

 **** Warning!!: The largest alpha MO coefficient is  0.46165353D+02


 **** Warning!!: The largest beta MO coefficient is  0.46664532D+02

 Symmetrizing basis deriv contribution to polar:
 IMax=3 JMax=2 DiffMx= 0.00D+00
 G2DrvN: will do     8 centers at a time, making    1 passes doing MaxLOS=2.
 Calling FoFCou, ICntrl=  3107 FMM=F I1Cent=   0 AccDes= 0.00D+00.
 FoFDir/FoFCou used for L=0 through L=2.
 End of G2Drv Frequency-dependent properties file   721 does not exist.
 End of G2Drv Frequency-dependent properties file   722 does not exist.
          IDoAtm=1111111
          Differentiating once with respect to electric field.
                with respect to dipole field.
          Differentiating once with respect to nuclear coordinates.
          Keep R1 and R2 ints in memory in canonical form, NReq=9387419.
          There are    24 degrees of freedom in the 1st order CPHF.  IDoFFX=5.
     21 vectors produced by pass  0 Test12= 4.64D-15 4.17D-09 XBig12= 5.12D+01 3.74D+00.
 AX will form    21 AO Fock derivatives at one time.
     21 vectors produced by pass  1 Test12= 4.64D-15 4.17D-09 XBig12= 2.98D+00 5.05D-01.
     21 vectors produced by pass  2 Test12= 4.64D-15 4.17D-09 XBig12= 7.71D-02 6.69D-02.
     21 vectors produced by pass  3 Test12= 4.64D-15 4.17D-09 XBig12= 4.71D-04 4.66D-03.
     21 vectors produced by pass  4 Test12= 4.64D-15 4.17D-09 XBig12= 3.42D-06 4.34D-04.
     21 vectors produced by pass  5 Test12= 4.64D-15 4.17D-09 XBig12= 3.23D-08 4.41D-05.
     15 vectors produced by pass  6 Test12= 4.64D-15 4.17D-09 XBig12= 2.45D-10 3.23D-06.
      5 vectors produced by pass  7 Test12= 4.64D-15 4.17D-09 XBig12= 1.06D-12 1.62D-07.
      2 vectors produced by pass  8 Test12= 4.64D-15 4.17D-09 XBig12= 4.79D-15 1.49D-08.
 Inverted reduced A of dimension   148 with in-core refinement.
 Isotropic polarizability for W=    0.000000       30.63 Bohr**3.
 End of Minotr Frequency-dependent properties file   721 does not exist.
 End of Minotr Frequency-dependent properties file   722 does not exist.

 **********************************************************************

            Population analysis using the SCF density.

 **********************************************************************

 Alpha  occ. eigenvalues --  -10.55154 -10.54672  -0.87118  -0.67523  -0.55116
 Alpha  occ. eigenvalues --   -0.49592  -0.42734  -0.39790  -0.28542
 Alpha virt. eigenvalues --    0.02286   0.03690   0.04909   0.05021   0.08099
 Alpha virt. eigenvalues --    0.08749   0.09841   0.12173   0.15129   0.19444
 Alpha virt. eigenvalues --    0.19575   0.24041   0.30635   0.35021   0.39181
 Alpha virt. eigenvalues --    0.43157   0.44464   0.54169   0.55988   0.58994
 Alpha virt. eigenvalues --    0.64957   0.66866   0.73258   0.74078   0.75462
 Alpha virt. eigenvalues --    0.77723   0.91256   1.05959   1.12500   1.16085
 Alpha virt. eigenvalues --    1.34057   1.35343   1.42708   1.46209   1.54408
 Alpha virt. eigenvalues --    1.55176   1.63982   1.64393   1.66110   1.71907
 Alpha virt. eigenvalues --    1.82015   1.90838   2.00854   2.05956   2.10608
 Alpha virt. eigenvalues --    2.17656   2.18660   2.21716   2.33715   2.46747
 Alpha virt. eigenvalues --    2.47502   2.56724   2.59400   2.68147   2.78124
 Alpha virt. eigenvalues --    2.78897   2.87816   2.96038   3.15983   3.48380
 Alpha virt. eigenvalues --    3.68943   3.86219   4.14781  23.83262  24.30834
  Beta  occ. eigenvalues --  -10.55192 -10.54506  -0.86656  -0.67046  -0.54873
  Beta  occ. eigenvalues --   -0.49203  -0.42567  -0.34836
  Beta virt. eigenvalues --   -0.06971   0.02080   0.03402   0.04417   0.04598
  Beta virt. eigenvalues --    0.07676   0.08233   0.09606   0.11654   0.14687
  Beta virt. eigenvalues --    0.19443   0.19444   0.23754   0.30484   0.30640
  Beta virt. eigenvalues --    0.35084   0.43076   0.44477   0.54306   0.55892
  Beta virt. eigenvalues --    0.59181   0.65000   0.65905   0.72796   0.74745
  Beta virt. eigenvalues --    0.75681   0.77230   0.90508   1.06331   1.10900
  Beta virt. eigenvalues --    1.15498   1.21479   1.22715   1.36086   1.45208
  Beta virt. eigenvalues --    1.46556   1.50446   1.61999   1.64151   1.65235
  Beta virt. eigenvalues --    1.70385   1.82184   1.84558   2.00842   2.06035
  Beta virt. eigenvalues --    2.09680   2.17232   2.17898   2.20001   2.31113
  Beta virt. eigenvalues --    2.44815   2.46804   2.57052   2.58812   2.68418
  Beta virt. eigenvalues --    2.78130   2.79080   2.87293   2.96587   3.16235
  Beta virt. eigenvalues --    3.48558   3.69251   3.86544   4.15431  23.83360
  Beta virt. eigenvalues --   24.31040
          Condensed to atoms (all electrons):
              1          2          3          4          5          6
     1  C    4.949085   0.558650   0.396391   0.396363  -0.050982  -0.050972
     2  C    0.558650   5.095683  -0.020023  -0.019992   0.426769   0.426741
     3  H    0.396391  -0.020023   0.498889  -0.026169  -0.007017   0.005095
     4  H    0.396363  -0.019992  -0.026169   0.498892   0.005094  -0.007018
     5  H   -0.050982   0.426769  -0.007017   0.005094   0.485215  -0.024838
     6  H   -0.050972   0.426741   0.005095  -0.007018  -0.024838   0.485250
     7  H   -0.036577   0.039314  -0.001209  -0.001206  -0.022641  -0.022712
              7
     1  C   -0.036577
     2  C    0.039314
     3  H   -0.001209
     4  H   -0.001206
     5  H   -0.022641
     6  H   -0.022712
     7  H    1.060863
 Mulliken atomic charges:
              1
     1  C   -0.161959
     2  C   -0.507142
     3  H    0.154044
     4  H    0.154036
     5  H    0.188400
     6  H    0.188454
     7  H   -0.015832
 Sum of Mulliken atomic charges =  -0.00000
 Mulliken charges with hydrogens summed into heavy atoms:
              1
     1  C    0.146120
     2  C   -0.146120
 Sum of Mulliken charges with hydrogens summed into heavy atoms =  -0.00000
          Atomic-Atomic Spin Densities.
              1          2          3          4          5          6
     1  C    0.335644   0.021486  -0.003137  -0.003128  -0.002359  -0.002389
     2  C    0.021486  -0.177572   0.002447   0.002438   0.008849   0.008905
     3  H   -0.003137   0.002447  -0.014345   0.000576   0.000259   0.000073
     4  H   -0.003128   0.002438   0.000576  -0.014345   0.000072   0.000258
     5  H   -0.002359   0.008849   0.000259   0.000072   0.020039   0.003034
     6  H   -0.002389   0.008905   0.000073   0.000258   0.003034   0.020087
     7  H   -0.044835  -0.037955  -0.001009  -0.001004  -0.020249  -0.020327
              7
     1  C   -0.044835
     2  C   -0.037955
     3  H   -0.001009
     4  H   -0.001004
     5  H   -0.020249
     6  H   -0.020327
     7  H    1.006480
 Mulliken atomic spin densities:
              1
     1  C    0.301282
     2  C   -0.171403
     3  H   -0.015136
     4  H   -0.015132
     5  H    0.009644
     6  H    0.009643
     7  H    0.881102
 Sum of Mulliken atomic spin densities =   1.00000
 APT atomic charges:
              1
     1  C   -0.103122
     2  C   -0.106298
     3  H    0.051538
     4  H    0.051501
     5  H    0.054102
     6  H    0.054063
     7  H   -0.001784
 Sum of APT charges=   0.00000
 APT Atomic charges with hydrogens summed into heavy atoms:
              1
     1  C   -0.000083
     2  C    0.000083
     3  H    0.000000
     4  H    0.000000
     5  H    0.000000
     6  H    0.000000
     7  H    0.000000
 Sum of APT charges=   0.00000
 Electronic spatial extent (au):  <R**2>=            139.3187
 Charge=             -0.0000 electrons
 Dipole moment (field-independent basis, Debye):
    X=             -0.0086    Y=             -0.5248    Z=             -0.2627  Tot=              0.5869
 Quadrupole moment (field-independent basis, Debye-Ang):
   XX=            -13.6492   YY=            -18.3503   ZZ=            -14.3959
   XY=             -0.0783   XZ=             -0.0222   YZ=             -1.3493
 Traceless Quadrupole moment (field-independent basis, Debye-Ang):
   XX=              1.8159   YY=             -2.8851   ZZ=              1.0692
   XY=             -0.0783   XZ=             -0.0222   YZ=             -1.3493
 Octapole moment (field-independent basis, Debye-Ang**2):
  XXX=             -0.1436  YYY=            -10.9521  ZZZ=            -34.7993  XYY=             -0.0809
  XXY=             -2.9682  XXZ=            -10.9843  XZZ=             -0.0920  YZZ=             -5.6536
  YYZ=            -15.8127  XYZ=             -0.0796
 Hexadecapole moment (field-independent basis, Debye-Ang**3):
 XXXX=            -28.8247 YYYY=            -61.2447 ZZZZ=           -140.9696 XXXY=             -0.2598
 XXXZ=             -0.2849 YYYX=             -0.2589 YYYZ=            -21.8145 ZZZX=             -0.3631
 ZZZY=            -22.4161 XXYY=            -14.9914 XXZZ=            -24.6236 YYZZ=            -40.0279
 XXYZ=             -5.8829 YYXZ=             -0.1620 ZZXY=             -0.2519
 N-N= 3.687203561108D+01 E-N=-3.819414510776D+02  KE= 1.176856198402D+02
  Exact polarizability:  22.367   0.124  30.045   0.123   7.545  39.467
 Approx polarizability:  24.066   0.101  30.514   0.114   7.036  44.792
                          Isotropic Fermi Contact Couplings
        Atom                 a.u.       MegaHertz       Gauss      10(-4) cm-1
     1  C(13)              0.03756      42.22671      15.06754      14.08532
     2  C(13)              0.01687      18.96718       6.76796       6.32677
     3  H(1)              -0.00421     -18.82730      -6.71805      -6.28011
     4  H(1)              -0.00421     -18.82659      -6.71779      -6.27987
     5  H(1)               0.00567      25.33270       9.03934       8.45008
     6  H(1)               0.00569      25.41288       9.06795       8.47682
     7  H(1)               0.27158    1213.93045     433.16055     404.92361
 --------------------------------------------------------
       Center         ----  Spin Dipole Couplings  ----
                      3XX-RR        3YY-RR        3ZZ-RR
 --------------------------------------------------------
     1   Atom       -0.150444      0.302107     -0.151663
     2   Atom        0.038543     -0.102850      0.064307
     3   Atom        0.009132     -0.001827     -0.007305
     4   Atom        0.009232     -0.001931     -0.007301
     5   Atom       -0.008450      0.010801     -0.002351
     6   Atom       -0.007790      0.010152     -0.002362
     7   Atom        0.005599     -0.009720      0.004121
 --------------------------------------------------------
                        XY            XZ            YZ
 --------------------------------------------------------
     1   Atom        0.007591      0.000141      0.008694
     2   Atom       -0.002403      0.000060      0.005273
     3   Atom       -0.001750     -0.019673      0.004311
     4   Atom        0.001374      0.019801      0.003653
     5   Atom       -0.009880     -0.002476      0.000252
     6   Atom        0.010494      0.002475      0.000170
     7   Atom       -0.000248     -0.000070     -0.004422
 --------------------------------------------------------


 ---------------------------------------------------------------------------------
              Anisotropic Spin Dipole Couplings in Principal Axis System
 ---------------------------------------------------------------------------------

       Atom             a.u.   MegaHertz   Gauss  10(-4) cm-1        Axes

              Baa    -0.1518   -20.374    -7.270    -6.796  0.0037 -0.0192  0.9998
     1 C(13)  Bbb    -0.1506   -20.205    -7.210    -6.740  0.9999 -0.0167 -0.0040
              Bcc     0.3024    40.579    14.480    13.536  0.0168  0.9997  0.0191
 
              Baa    -0.1031   -13.829    -4.935    -4.613  0.0170  0.9994 -0.0315
     2 C(13)  Bbb     0.0386     5.178     1.848     1.727  0.9999 -0.0169  0.0011
              Bcc     0.0645     8.652     3.087     2.886 -0.0006  0.0315  0.9995
 
              Baa    -0.0208   -11.085    -3.955    -3.697  0.5385 -0.1393  0.8310
     3 H(1)   Bbb    -0.0021    -1.100    -0.393    -0.367  0.2062  0.9780  0.0304
              Bcc     0.0228    12.185     4.348     4.064  0.8170 -0.1550 -0.5554
 
              Baa    -0.0208   -11.082    -3.954    -3.697 -0.5429 -0.1215  0.8310
     4 H(1)   Bbb    -0.0021    -1.099    -0.392    -0.367 -0.1735  0.9844  0.0306
              Bcc     0.0228    12.181     4.347     4.063  0.8217  0.1275  0.5555
 
              Baa    -0.0131    -6.971    -2.487    -2.325  0.9059  0.3729  0.2006
     5 H(1)   Bbb    -0.0020    -1.060    -0.378    -0.354 -0.1581 -0.1414  0.9772
              Bcc     0.0151     8.031     2.866     2.679 -0.3928  0.9170  0.0692
 
              Baa    -0.0131    -6.973    -2.488    -2.326  0.8934 -0.4023 -0.2001
     6 H(1)   Bbb    -0.0020    -1.067    -0.381    -0.356  0.1532 -0.1460  0.9774
              Bcc     0.0151     8.040     2.869     2.682  0.4224  0.9038  0.0688
 
              Baa    -0.0110    -5.878    -2.097    -1.961  0.0155  0.9597  0.2804
     7 H(1)   Bbb     0.0054     2.888     1.031     0.963 -0.0119 -0.2803  0.9598
              Bcc     0.0056     2.990     1.067     0.997  0.9998 -0.0182  0.0071
 

 ---------------------------------------------------------------------------------

 Entering OneElI...
 Calculate overlap and kinetic energy integrals
    NBasis =  76  MinDer = 2  MaxDer = 2
 Requested accuracy = 0.1000D-12
 PrsmSu:  NPrtUS=  12 ThrOK=T IAlg=1
 PRISM was handed    17459111 working-precision words and   528 shell-pairs
 PRISM was handed    17459111 working-precision words and   528 shell-pairs
 PRISM was handed    17459111 working-precision words and   528 shell-pairs
 PRISM was handed    17459111 working-precision words and   528 shell-pairs
 PRISM was handed    17459111 working-precision words and   528 shell-pairs
 PRISM was handed    17459111 working-precision words and   528 shell-pairs
 PRISM was handed    17459111 working-precision words and   528 shell-pairs
 PRISM was handed    17459111 working-precision words and   528 shell-pairs
 PRISM was handed    17459111 working-precision words and   528 shell-pairs
 PRISM was handed    17459111 working-precision words and   528 shell-pairs
 PRISM was handed    17459111 working-precision words and   528 shell-pairs
 PRISM was handed    17459111 working-precision words and   528 shell-pairs
 IPart=  7 NShTot=          39 NBatch=          18 AvBLen=         2.2
 IPart= 10 NShTot=          33 NBatch=          14 AvBLen=         2.4
 IPart= 11 NShTot=          33 NBatch=          14 AvBLen=         2.4
 IPart=  9 NShTot=          37 NBatch=          18 AvBLen=         2.1
 IPart=  4 NShTot=          44 NBatch=          21 AvBLen=         2.1
 IPart=  5 NShTot=          41 NBatch=          18 AvBLen=         2.3
 IPart=  8 NShTot=          38 NBatch=          18 AvBLen=         2.1
 IPart=  3 NShTot=          49 NBatch=          26 AvBLen=         1.9
 IPart=  6 NShTot=          40 NBatch=          18 AvBLen=         2.2
 IPart=  2 NShTot=          53 NBatch=          29 AvBLen=         1.8
 IPart=  1 NShTot=          59 NBatch=          32 AvBLen=         1.8
 IPart=  0 NShTot=          62 NBatch=          33 AvBLen=         1.9
 Entering OneElI...
 Calculate potential energy integrals
    NBasis =  76  MinDer = 2  MaxDer = 2
 Requested accuracy = 0.1000D-12
 PrsmSu:  NPrtUS=  12 ThrOK=T IAlg=1
 PRISM was handed    17460300 working-precision words and   528 shell-pairs
 PRISM was handed    17460300 working-precision words and   528 shell-pairs
 PRISM was handed    17460300 working-precision words and   528 shell-pairs
 PRISM was handed    17460300 working-precision words and   528 shell-pairs
 PRISM was handed    17460300 working-precision words and   528 shell-pairs
 PRISM was handed    17460300 working-precision words and   528 shell-pairs
 PRISM was handed    17460300 working-precision words and   528 shell-pairs
 PRISM was handed    17460300 working-precision words and   528 shell-pairs
 PRISM was handed    17460300 working-precision words and   528 shell-pairs
 PRISM was handed    17460300 working-precision words and   528 shell-pairs
 PRISM was handed    17460300 working-precision words and   528 shell-pairs
 PRISM was handed    17460300 working-precision words and   528 shell-pairs
 IPart= 11 NShTot=         224 NBatch=          32 AvBLen=         7.0
 IPart= 10 NShTot=         231 NBatch=          33 AvBLen=         7.0
 IPart=  4 NShTot=         315 NBatch=          45 AvBLen=         7.0
 IPart=  7 NShTot=         280 NBatch=          40 AvBLen=         7.0
 IPart=  5 NShTot=         294 NBatch=          42 AvBLen=         7.0
 IPart=  9 NShTot=         259 NBatch=          37 AvBLen=         7.0
 IPart=  3 NShTot=         343 NBatch=          49 AvBLen=         7.0
 IPart=  6 NShTot=         280 NBatch=          40 AvBLen=         7.0
 IPart=  8 NShTot=         273 NBatch=          39 AvBLen=         7.0
 IPart=  2 NShTot=         357 NBatch=          51 AvBLen=         7.0
 IPart=  1 NShTot=         406 NBatch=          58 AvBLen=         7.0
 IPart=  0 NShTot=         434 NBatch=          62 AvBLen=         7.0
 Polarizability after L701:
                1             2             3 
      1  0.223669D+02
      2  0.123811D+00  0.300450D+02
      3  0.123070D+00  0.754526D+01  0.394667D+02
 Dipole Derivatives after L701:
                 1             2             3             4             5 
      1   0.924773D-01 -0.792093D-02  0.576544D-03  0.427588D-01 -0.488852D-02
      2  -0.814733D-02 -0.389692D+00  0.403595D-01 -0.522655D-02 -0.260389D+00
      3  -0.929273D-03 -0.522009D-01 -0.121505D-01 -0.630075D-03 -0.319080D-01
                 6             7             8             9            10 
      1  -0.227298D-02 -0.336528D-01  0.246237D-02  0.384836D-01 -0.334301D-01
      2  -0.144104D+00 -0.105030D-02  0.165001D+00  0.179597D-03  0.782369D-02
      3  -0.101264D+00  0.658379D-01  0.493337D-02  0.232654D-01 -0.655668D-01
                11            12            13            14            15 
      1   0.402002D-02 -0.384283D-01 -0.166594D-01  0.277947D-01 -0.275284D-01
      2   0.164657D+00  0.157205D-02  0.148773D-01  0.141541D+00  0.170176D-01
      3   0.684133D-02  0.232771D-01 -0.504875D-01  0.249768D-01  0.374234D-01
                16            17            18            19            20 
      1  -0.179020D-01 -0.226037D-01  0.280662D-01 -0.335918D-01  0.113610D-02
      2  -0.947232D-02  0.142675D+00  0.159900D-01  0.119549D-02  0.362072D-01
      3   0.513677D-01  0.232657D-01  0.374163D-01  0.408021D-03  0.240917D-01
                21 
      1   0.110329D-02
      2   0.689854D-01
      3  -0.796793D-02
 Hessian after L701:
                1             2             3             4             5 
      1  0.761314D+01
      2  0.690650D-01  0.117229D+02
      3  0.184046D-02  0.105667D+00  0.290556D+01
      4 -0.565384D+01 -0.262172D-01 -0.925672D-03  0.789149D+01
      5 -0.262242D-01 -0.721832D+01 -0.504780D-01  0.638279D-01  0.116828D+02
      6 -0.152098D-02 -0.884405D-01  0.728575D+00  0.613832D-03  0.247432D-01
      7 -0.107366D+01 -0.730257D-02 -0.770492D+00  0.710529D-01  0.339244D-02
      8 -0.558279D-02 -0.228654D+01  0.532181D-02  0.105916D-03 -0.156443D-01
      9 -0.837809D+00  0.688248D-02 -0.184732D+01 -0.470040D-01  0.541803D-04
     10 -0.107459D+01 -0.335013D-01  0.770198D+00  0.708204D-01 -0.629332D-02
     11 -0.352092D-01 -0.228558D+01 -0.205953D-01 -0.301144D-02 -0.154618D-01
     12  0.837539D+00 -0.213130D-01 -0.184735D+01  0.469890D-01 -0.151457D-02
     13  0.945178D-01 -0.141773D-01  0.102048D+00 -0.110846D+01 -0.101886D+00
     14 -0.501484D-02  0.123801D-01 -0.128219D-02 -0.111138D+00 -0.229697D+01
     15  0.412402D-01 -0.623629D-02  0.499104D-01  0.834270D+00 -0.624522D-01
     16  0.950783D-01  0.114168D-01 -0.102013D+00 -0.110282D+01  0.618352D-01
     17  0.224333D-02  0.118401D-01  0.214211D-02  0.710680D-01 -0.230275D+01
     18 -0.414311D-01 -0.486708D-02  0.498824D-01 -0.835931D+00 -0.344539D-01
     19 -0.644255D-03  0.716625D-03 -0.655440D-03 -0.168250D+00  0.534845D-02
     20  0.722797D-03  0.432734D-01 -0.407749D-01  0.536442D-02  0.166319D+00
     21  0.141255D-03  0.830782D-02 -0.392548D-01  0.198761D-02  0.124101D+00
                6             7             8             9            10 
      6  0.299714D+01
      7 -0.125406D+00  0.103776D+01
      8  0.185845D-02  0.475945D-02  0.227707D+01
      9  0.618408D-01  0.934333D+00 -0.860277D-02  0.172004D+01
     10  0.125416D+00 -0.576770D-01  0.228676D-02 -0.169629D-01  0.103885D+01
     11 -0.235063D-02  0.686398D-03  0.308901D-01  0.869902D-04  0.369155D-01
     12  0.618636D-01  0.169550D-01 -0.480024D-03  0.439302D-01 -0.934079D+00
     13  0.783501D+00 -0.532046D-02 -0.960440D-03  0.107405D-01  0.282346D-01
     14 -0.597430D-01 -0.293285D-03 -0.514080D-02  0.108154D-02 -0.159624D-02
     15 -0.186931D+01 -0.103019D-01 -0.173907D-03 -0.100317D-01  0.413940D-01
     16 -0.785124D+00  0.283042D-01  0.541148D-03 -0.414563D-01 -0.527621D-02
     17 -0.334503D-01  0.655253D-03  0.398297D-03 -0.812229D-03  0.305404D-03
     18 -0.186918D+01 -0.414323D-01 -0.360686D-03  0.300267D-01  0.102899D-01
     19  0.252016D-02 -0.452541D-03 -0.115004D-02 -0.184175D-02 -0.360922D-03
     20  0.157383D+00 -0.189768D-02 -0.103769D-02  0.130981D-02  0.188321D-02
     21 -0.110928D+00 -0.365569D-02  0.243713D-02  0.151126D-02  0.374355D-02
               11            12            13            14            15 
     11  0.227599D+01
     12  0.228047D-01  0.172005D+01
     13 -0.147915D-02  0.414059D-01  0.103691D+01
     14  0.474801D-03 -0.220742D-02  0.959314D-01  0.229813D+01
     15 -0.175190D-02  0.300227D-01 -0.924954D+00  0.708404D-01  0.173782D+01
     16  0.969184D-03 -0.106963D-01 -0.575882D-01  0.258557D-02  0.171832D-01
     17 -0.517940D-02  0.144887D-02  0.343671D-03  0.302933D-01 -0.387801D-02
     18 -0.521093D-03 -0.100308D-01 -0.173063D-01 -0.329983D-02  0.424108D-01
     19  0.112872D-02  0.188606D-02  0.117121D-01  0.195250D-01  0.116890D-02
     20 -0.113039D-02  0.126138D-02  0.222282D-01 -0.391611D-01  0.365191D-02
     21  0.232720D-02  0.152399D-02  0.456525D-02 -0.538943D-02  0.191808D-01
               16            17            18            19            20 
     16  0.103196D+01
     17 -0.534196D-01  0.230325D+01
     18  0.926854D+00  0.398026D-01  0.173763D+01
     19  0.103395D-01 -0.211961D-01 -0.104346D-02  0.147656D+00
     20 -0.239283D-01 -0.378516D-01  0.369998D-02 -0.437263D-02 -0.130412D+00
     21 -0.474751D-02 -0.525303D-02  0.192589D-01 -0.203446D-02 -0.126531D+00
               21 
     21  0.108708D+00
 ICntrl=    100127.
 Calling FoFJK, ICntrl=    100127 FMM=F ISym2X=0 I1Cent= 0 IOpClX= 1 NMat=1 NMatS=1 NMatT=0.
 FoFJK:  IHMeth= 1 ICntrl=100127 DoSepK=F KAlg= 1 I1Cent= 0 FoldK=F
 FoFCou: FMM=F IPFlag=           0 FMFlag=      100000 FMFlg1=         800
         NFxFlg=           0 DoJE=F BraDBF=F KetDBF=F FulRan=T
         Omega=  0.000000  0.000000  1.000000  0.000000  0.000000 ICntrl=  100127 IOpCl=  1
         NMat0=    1 NMatS0=    1 NMatT0=    0 NMatD0=    1 NMtDS0=    0 NMtDT0=    0
         I1Cent=           0 NGrid=           0.
 Symmetry not used in FoFCou.
 FoFCou:  KetSym=F NOpSet=  1 NOpAb=1 NOp=  1.
 FoFCou:  CnvScl= 1.00D+00 Thresh= 1.00D-10
 PrismS was handed   209662646 working-precision words and   528 shell-pairs
 LenC2 before Schwartz=         529 after=         529.
 FoFCou: LinMIO=F DoNuc=F BraDBF=F KetDBF=F HaveP=T PDBF=F HaveZ=T HaveW=F
         NIJTC =      10 NIJTAt=       0 NIJTCD=       0 NIJTT =      10
         IJTBeg=       1 IJTEnd=      10 KLTBeg=       1 KLTEnd=      10
         IPTBeg=       1 IPTEnd=      10 IPTBCv=       1 IPTECv=      10
         IZTBeg=       1 IZTEnd=      10 IZTBCv=       1 IZTECv=      10
         IWTBeg=      11 IWTEnd=      10 IWTBCv=      11 IWTECv=      10
         INTBeg=       1 INTEnd=       0 IFTBCv=       1 IFTECv=      10
 NCel replicated for PrismC:     1
 CoulSu:  NPrtUS=  12 ThrOK=T IAlg=1
 Enter PrismC: JobTyp=22 DoJE=F Cont=F.
 PrismC was handed    17459512 working-precision words and   528 shell-pairs
 Enter PrismC: JobTyp=22 DoJE=F Cont=F.
 PrismC was handed    17459512 working-precision words and   528 shell-pairs
 Enter PrismC: JobTyp=22 DoJE=F Cont=F.
 Enter PrismC: JobTyp=22 DoJE=F Cont=F.
 PrismC was handed    17459512 working-precision words and   528 shell-pairs
 Enter PrismC: JobTyp=22 DoJE=F Cont=F.
 PrismC was handed    17459512 working-precision words and   528 shell-pairs
 Enter PrismC: JobTyp=22 DoJE=F Cont=F.
 PrismC was handed    17459512 working-precision words and   528 shell-pairs
 Enter PrismC: JobTyp=22 DoJE=F Cont=F.
 PrismC was handed    17459512 working-precision words and   528 shell-pairs
 Enter PrismC: JobTyp=22 DoJE=F Cont=F.
 Enter PrismC: JobTyp=22 DoJE=F Cont=F.
 PrismC was handed    17459512 working-precision words and   528 shell-pairs
 Enter PrismC: JobTyp=22 DoJE=F Cont=F.
 Enter PrismC: JobTyp=22 DoJE=F Cont=F.
 PrismC was handed    17459512 working-precision words and   528 shell-pairs
 PrismC was handed    17459512 working-precision words and   528 shell-pairs
 PrismC was handed    17459512 working-precision words and   528 shell-pairs
 PrismC was handed    17459512 working-precision words and   528 shell-pairs
 Enter PrismC: JobTyp=22 DoJE=F Cont=F.
 PrismC was handed    17459512 working-precision words and   528 shell-pairs
 IPart= 11 NShTot=       11094 NShNF=       11094 NShFF=           0 NBatch=         731 AvBLen=        15.2
 IPart= 10 NShTot=       11127 NShNF=       11127 NShFF=           0 NBatch=         737 AvBLen=        15.1
 IPart=  9 NShTot=       11337 NShNF=       11337 NShFF=           0 NBatch=         759 AvBLen=        14.9
 IPart=  8 NShTot=       11395 NShNF=       11395 NShFF=           0 NBatch=         764 AvBLen=        14.9
 IPart=  5 NShTot=       11457 NShNF=       11457 NShFF=           0 NBatch=         783 AvBLen=        14.6
 IPart=  4 NShTot=       11518 NShNF=       11518 NShFF=           0 NBatch=         793 AvBLen=        14.5
 IPart=  6 NShTot=       11380 NShNF=       11380 NShFF=           0 NBatch=         777 AvBLen=        14.6
 IPart=  7 NShTot=       11312 NShNF=       11312 NShFF=           0 NBatch=         776 AvBLen=        14.6
 IPart=  2 NShTot=       11565 NShNF=       11565 NShFF=           0 NBatch=         825 AvBLen=        14.0
 IPart=  3 NShTot=       11534 NShNF=       11534 NShFF=           0 NBatch=         821 AvBLen=        14.0
 IPart=  1 NShTot=       11731 NShNF=       11731 NShFF=           0 NBatch=         838 AvBLen=        14.0
 IPart=  0 NShTot=       11847 NShNF=       11847 NShFF=           0 NBatch=         857 AvBLen=        13.8
 ReadGW:  IGet=0 IStart=           1 Next=        4166 LGW=        4165.
 Remaining memory in FofDFT      199.98 Mw
 Pruned (  99, 590) grid will be used in CalDFT.
 CkSvGd:  ISavGI=        -1 IRadAn=       5 IRASav=       5 ISavGd=        -1.
 CalDSu:  NPrtUS=  12 ThrOK=T IAlg=1
 IPart= 0 IRanGd=          0 ScrnBf=T ScrnGd=T RCrit=4.00D+00 DoMicB=T.
 CutRad = 1000.00    CtRdIn =    0.00    XCrit =  15.00   ICut = 0
 IPart=10 IRanGd=          0 ScrnBf=T ScrnGd=T RCrit=4.00D+00 DoMicB=T.
 IPart= 5 IRanGd=          0 ScrnBf=T ScrnGd=T RCrit=4.00D+00 DoMicB=T.
 CutRad = 1000.00    CtRdIn =    0.00    XCrit =  15.00   ICut = 0
 Pruned (  99, 590) grid will be used in CalDFT.
 IPart= 4 IRanGd=          0 ScrnBf=T ScrnGd=T RCrit=4.00D+00 DoMicB=T.
 CutRad = 1000.00    CtRdIn =    0.00    XCrit =  15.00   ICut = 0
 IPart= 7 IRanGd=          0 ScrnBf=T ScrnGd=T RCrit=4.00D+00 DoMicB=T.
 Pruned (  99, 590) grid will be used in CalDFT.
 CutRad = 1000.00    CtRdIn =    0.00    XCrit =  15.00   ICut = 0
 IPart=11 IRanGd=          0 ScrnBf=T ScrnGd=T RCrit=4.00D+00 DoMicB=T.
 IPart= 2 IRanGd=          0 ScrnBf=T ScrnGd=T RCrit=4.00D+00 DoMicB=T.
 CutRad = 1000.00    CtRdIn =    0.00    XCrit =  15.00   ICut = 0
 CutRad = 1000.00    CtRdIn =    0.00    XCrit =  15.00   ICut = 0
 IPart= 9 IRanGd=          0 ScrnBf=T ScrnGd=T RCrit=4.00D+00 DoMicB=T.
 CutRad = 1000.00    CtRdIn =    0.00    XCrit =  15.00   ICut = 0
 IPart= 8 IRanGd=          0 ScrnBf=T ScrnGd=T RCrit=4.00D+00 DoMicB=T.
 CutRad = 1000.00    CtRdIn =    0.00    XCrit =  15.00   ICut = 0
 IPart= 6 IRanGd=          0 ScrnBf=T ScrnGd=T RCrit=4.00D+00 DoMicB=T.
 Pruned (  99, 590) grid will be used in CalDFT.
 Pruned (  99, 590) grid will be used in CalDFT.
 IPart= 1 IRanGd=          0 ScrnBf=T ScrnGd=T RCrit=4.00D+00 DoMicB=T.
 CutRad = 1000.00    CtRdIn =    0.00    XCrit =  15.00   ICut = 0
 Pruned (  99, 590) grid will be used in CalDFT.
 Pruned (  99, 590) grid will be used in CalDFT.
 Pruned (  99, 590) grid will be used in CalDFT.
 IPart= 3 IRanGd=          0 ScrnBf=T ScrnGd=T RCrit=4.00D+00 DoMicB=T.
 CutRad = 1000.00    CtRdIn =    0.00    XCrit =  15.00   ICut = 0
 Pruned (  99, 590) grid will be used in CalDFT.
 Pruned (  99, 590) grid will be used in CalDFT.
 CutRad = 1000.00    CtRdIn =    0.00    XCrit =  15.00   ICut = 0
 Pruned (  99, 590) grid will be used in CalDFT.
 CutRad = 1000.00    CtRdIn =    0.00    XCrit =  15.00   ICut = 0
 Pruned (  99, 590) grid will be used in CalDFT.
 Pruned (  99, 590) grid will be used in CalDFT.
 Pruned (  99, 590) grid will be used in CalDFT.
 Pruned (  99, 590) grid will be used in CalDFT.
 Pruned (  99, 590) grid will be used in CalDFT.
 Pruned (  99, 590) grid will be used in CalDFT.
 Pruned (  99, 590) grid will be used in CalDFT.
 Pruned (  99, 590) grid will be used in CalDFT.
 Pruned (  99, 590) grid will be used in CalDFT.
 Pruned (  99, 590) grid will be used in CalDFT.
 Pruned (  99, 590) grid will be used in CalDFT.
 Pruned (  99, 590) grid will be used in CalDFT.
 Pruned (  99, 590) grid will be used in CalDFT.
 Pruned (  99, 590) grid will be used in CalDFT.
 Pruned (  99, 590) grid will be used in CalDFT.
 Pruned (  99, 590) grid will be used in CalDFT.
 Pruned (  99, 590) grid will be used in CalDFT.
 Pruned (  99, 590) grid will be used in CalDFT.
 Pruned (  99, 590) grid will be used in CalDFT.
 Pruned (  99, 590) grid will be used in CalDFT.
 Pruned (  99, 590) grid will be used in CalDFT.
 Pruned (  99, 590) grid will be used in CalDFT.
 Pruned (  99, 590) grid will be used in CalDFT.
 Pruned (  99, 590) grid will be used in CalDFT.
 Pruned (  99, 590) grid will be used in CalDFT.
 Pruned (  99, 590) grid will be used in CalDFT.
 Pruned (  99, 590) grid will be used in CalDFT.
 Pruned (  99, 590) grid will be used in CalDFT.
 Pruned (  99, 590) grid will be used in CalDFT.
 Pruned (  99, 590) grid will be used in CalDFT.
 Pruned (  99, 590) grid will be used in CalDFT.
 Pruned (  99, 590) grid will be used in CalDFT.
 Pruned (  99, 590) grid will be used in CalDFT.
 Pruned (  99, 590) grid will be used in CalDFT.
 Pruned (  99, 590) grid will be used in CalDFT.
 Pruned (  99, 590) grid will be used in CalDFT.
 Pruned (  99, 590) grid will be used in CalDFT.
 Pruned (  99, 590) grid will be used in CalDFT.
 Pruned (  99, 590) grid will be used in CalDFT.
 Pruned (  99, 590) grid will be used in CalDFT.
 Pruned (  99, 590) grid will be used in CalDFT.
 Pruned (  99, 590) grid will be used in CalDFT.
 Pruned (  99, 590) grid will be used in CalDFT.
 Pruned (  99, 590) grid will be used in CalDFT.
 Pruned (  99, 590) grid will be used in CalDFT.
 Pruned (  99, 590) grid will be used in CalDFT.
 Pruned (  99, 590) grid will be used in CalDFT.
 Pruned (  99, 590) grid will be used in CalDFT.
 Pruned (  99, 590) grid will be used in CalDFT.
 Pruned (  99, 590) grid will be used in CalDFT.
 Pruned (  99, 590) grid will be used in CalDFT.
 Pruned (  99, 590) grid will be used in CalDFT.
 Pruned (  99, 590) grid will be used in CalDFT.
 Pruned (  99, 590) grid will be used in CalDFT.
 Pruned (  99, 590) grid will be used in CalDFT.
 Pruned (  99, 590) grid will be used in CalDFT.
 Pruned (  99, 590) grid will be used in CalDFT.
 Pruned (  99, 590) grid will be used in CalDFT.
 Pruned (  99, 590) grid will be used in CalDFT.
 Pruned (  99, 590) grid will be used in CalDFT.
 Pruned (  99, 590) grid will be used in CalDFT.
 Pruned (  99, 590) grid will be used in CalDFT.
 Pruned (  99, 590) grid will be used in CalDFT.
 Pruned (  99, 590) grid will be used in CalDFT.
 Pruned (  99, 590) grid will be used in CalDFT.
 Pruned (  99, 590) grid will be used in CalDFT.
 Pruned (  99, 590) grid will be used in CalDFT.
 Pruned (  99, 590) grid will be used in CalDFT.
 Pruned (  99, 590) grid will be used in CalDFT.
 Pruned (  99, 590) grid will be used in CalDFT.
 Pruned (  99, 590) grid will be used in CalDFT.
 Pruned (  99, 590) grid will be used in CalDFT.
 Pruned (  99, 590) grid will be used in CalDFT.
 Pruned (  99, 590) grid will be used in CalDFT.
 IPart= 1        11841 of        14068 points in      16 batches and      113 microbatches, Max-NSigAt=       7 Max-NSgAt2=       7
 IPart= 4        11909 of        12614 points in      10 batches and       59 microbatches, Max-NSigAt=       7 Max-NSgAt2=       7
 IPart=11        11849 of        13542 points in      13 batches and       77 microbatches, Max-NSigAt=       7 Max-NSgAt2=       7
 IPart=10        11710 of        12622 points in      12 batches and       85 microbatches, Max-NSigAt=       7 Max-NSgAt2=       7
 IPart= 9        11785 of        12846 points in      14 batches and       84 microbatches, Max-NSigAt=       7 Max-NSgAt2=       7
 IPart= 7        11366 of        11904 points in      11 batches and       64 microbatches, Max-NSigAt=       7 Max-NSgAt2=       7
 IPart= 0        12095 of        12908 points in      10 batches and       48 microbatches, Max-NSigAt=       7 Max-NSgAt2=       7
 IPart= 8        11439 of        12488 points in      14 batches and       99 microbatches, Max-NSigAt=       7 Max-NSgAt2=       7
 IPart= 6        12663 of        14188 points in      13 batches and       63 microbatches, Max-NSigAt=       7 Max-NSgAt2=       7
 IPart= 3        11708 of        12966 points in      10 batches and       59 microbatches, Max-NSigAt=       7 Max-NSgAt2=       7
 IPart= 2        12705 of        13900 points in      10 batches and       35 microbatches, Max-NSigAt=       7 Max-NSgAt2=       7
 IPart= 5        13421 of        15284 points in      14 batches and       81 microbatches, Max-NSigAt=       7 Max-NSgAt2=       7
 Polarizability after L703:
                1             2             3 
      1  0.223669D+02
      2  0.123811D+00  0.300450D+02
      3  0.123070D+00  0.754526D+01  0.394667D+02
 Dipole Derivatives after L703:
                 1             2             3             4             5 
      1   0.924773D-01 -0.792093D-02  0.576544D-03  0.427588D-01 -0.488852D-02
      2  -0.814733D-02 -0.389692D+00  0.403595D-01 -0.522655D-02 -0.260389D+00
      3  -0.929273D-03 -0.522009D-01 -0.121505D-01 -0.630075D-03 -0.319080D-01
                 6             7             8             9            10 
      1  -0.227298D-02 -0.336528D-01  0.246237D-02  0.384836D-01 -0.334301D-01
      2  -0.144104D+00 -0.105030D-02  0.165001D+00  0.179597D-03  0.782369D-02
      3  -0.101264D+00  0.658379D-01  0.493337D-02  0.232654D-01 -0.655668D-01
                11            12            13            14            15 
      1   0.402002D-02 -0.384283D-01 -0.166594D-01  0.277947D-01 -0.275284D-01
      2   0.164657D+00  0.157205D-02  0.148773D-01  0.141541D+00  0.170176D-01
      3   0.684133D-02  0.232771D-01 -0.504875D-01  0.249768D-01  0.374234D-01
                16            17            18            19            20 
      1  -0.179020D-01 -0.226037D-01  0.280662D-01 -0.335918D-01  0.113610D-02
      2  -0.947232D-02  0.142675D+00  0.159900D-01  0.119549D-02  0.362072D-01
      3   0.513677D-01  0.232657D-01  0.374163D-01  0.408021D-03  0.240917D-01
                21 
      1   0.110329D-02
      2   0.689854D-01
      3  -0.796793D-02
 Hessian after L703:
                1             2             3             4             5 
      1  0.649509D+00
      2 -0.896307D-02  0.114909D+00
      3 -0.237757D-03 -0.924661D-02  0.818708D+00
      4 -0.113731D+00  0.113421D-02  0.679026D-03  0.647901D+00
      5  0.113915D-02 -0.460790D-01  0.421678D-01 -0.970180D-02  0.658855D-01
      6  0.141938D-03  0.821741D-02 -0.519451D+00 -0.144892D-02 -0.800871D-01
      7 -0.272637D+00  0.540729D-03  0.127814D+00  0.448270D-02  0.657035D-03
      8 -0.705579D-04 -0.362397D-01  0.119657D-02  0.758695D-03  0.599780D-02
      9  0.123609D+00 -0.239613D-03 -0.131249D+00  0.296662D-01  0.465717D-03
     10 -0.272271D+00  0.737109D-02 -0.127622D+00  0.443815D-02 -0.607597D-03
     11  0.798027D-02 -0.365675D-01  0.549536D-02 -0.704863D-03  0.603131D-02
     12 -0.123467D+00  0.391890D-02 -0.131229D+00 -0.296337D-01  0.145758D-02
     13  0.431431D-02 -0.172610D-03  0.160444D-02 -0.269234D+00  0.209608D-01
     14 -0.374885D-03  0.454037D-02 -0.587800D-02  0.213668D-01 -0.320218D-01
     15 -0.297357D-01  0.247809D-02 -0.129782D-01 -0.122106D+00  0.140347D-01
     16  0.433570D-02  0.177650D-03 -0.179490D-02 -0.270546D+00 -0.129879D-01
     17  0.383395D-03  0.452017D-02 -0.583854D-02 -0.134075D-01 -0.307568D-01
     18  0.297983D-01  0.148171D-02 -0.129829D-01  0.122650D+00  0.999747D-02
     19  0.480314D-03 -0.879908D-04 -0.443251D-03 -0.331013D-02  0.540292D-03
     20 -0.942959D-04 -0.508319D-02 -0.278965D-01  0.554426D-03  0.309430D-01
     21 -0.108892D-03 -0.660988D-02 -0.108177D-01  0.193412D-03  0.119639D-01
                6             7             8             9            10 
      6  0.797018D+00
      7 -0.191086D-02  0.280847D+00
      8 -0.833336D-03 -0.486630D-03  0.225537D-01
      9 -0.129271D-01 -0.138595D+00 -0.229401D-03  0.137778D+00
     10  0.188184D-02 -0.151543D-01  0.724229D-03 -0.136164D-01  0.280475D+00
     11 -0.899747D-03 -0.955790D-04  0.376746D-02  0.793223D-04 -0.815194D-02
     12 -0.129226D-01  0.136116D-01 -0.377180D-03  0.100176D-01  0.138429D+00
     13 -0.125439D+00  0.102230D-02 -0.514023D-03 -0.216554D-03  0.149975D-02
     14  0.222625D-01 -0.181769D-03 -0.770973D-02 -0.935740D-04  0.136953D-03
     15 -0.129815D+00  0.216841D-03 -0.564159D-03  0.118822D-02  0.932049D-03
     16  0.126248D+00  0.148540D-02 -0.315255D-03 -0.891374D-03  0.103528D-02
     17  0.181127D-01  0.191587D-03  0.113957D-01 -0.108451D-03 -0.108062D-03
     18 -0.129874D+00 -0.915734D-03  0.534101D-03 -0.484861D-02 -0.234962D-03
     19  0.527414D-03 -0.463467D-04 -0.964579D-04  0.445605D-04 -0.229891D-04
     20  0.332276D-01 -0.625373D-03  0.234890D-03  0.126000D-03  0.635334D-03
     21  0.797152D-02 -0.220498D-03  0.273410D-03  0.403935D-04  0.230016D-03
               11            12            13            14            15 
     11  0.228896D-01
     12 -0.488605D-02  0.137756D+00
     13  0.643427D-03  0.885599D-03  0.277607D+00
     14  0.113854D-01 -0.140737D-03 -0.225284D-01  0.302182D-01
     15  0.500773D-03 -0.485033D-02  0.136797D+00 -0.138686D-01  0.136650D+00
     16  0.223322D-03  0.214218D-03 -0.151843D-01 -0.155377D-02  0.133234D-01
     17 -0.772164D-02 -0.992095D-04  0.212816D-02  0.186274D-02 -0.213470D-02
     18 -0.558259D-03  0.118817D-02 -0.133864D-01 -0.169203D-02  0.959872D-02
     19  0.105371D-03 -0.399787D-04 -0.244110D-04  0.313500D-02  0.572382D-03
     20  0.215336D-03  0.126703D-03 -0.517420D-03 -0.827520D-02 -0.446097D-03
     21  0.268607D-03  0.407723D-04 -0.245070D-03 -0.589529D-03  0.206820D-03
               16            17            18            19            20 
     16  0.278993D+00
     17  0.142134D-01  0.289063D-01
     18 -0.137325D+00 -0.932917D-02  0.136712D+00
     19 -0.118873D-03 -0.340099D-02 -0.586405D-03  0.304244D-02
     20  0.242553D-03 -0.820647D-02 -0.433819D-03 -0.195224D-03 -0.982834D-02
     21  0.225752D-03 -0.602638D-03  0.207216D-03 -0.747211D-04 -0.470384D-02
               21 
     21  0.235097D-02
 FrcOut:
 IF    =   486 IFX   =   507 IFXYZ =   528
 IFFX  =   549 IFFFX =   780 IFLen =    21
 IFFLen=   231 IFFFLn=     0 IEDerv=   780
 LEDerv=  1061 IFroze=  1845 ICStrt= 13031
 DipoleDeriv   = 9.24773230D-02-8.14732732D-03-9.29273410D-04
                -7.92093040D-03-3.89691573D-01-5.22009336D-02
                 5.76544470D-04 4.03595370D-02-1.21505117D-02
                 4.27588042D-02-5.22654593D-03-6.30074729D-04
                -4.88852152D-03-2.60388599D-01-3.19080001D-02
                -2.27298364D-03-1.44104193D-01-1.01263801D-01
                -3.36528479D-02-1.05030245D-03 6.58378982D-02
                 2.46236740D-03 1.65000930D-01 4.93336768D-03
                 3.84836300D-02 1.79597461D-04 2.32653892D-02
                -3.34301040D-02 7.82368523D-03-6.55668342D-02
                 4.02001913D-03 1.64656539D-01 6.84132907D-03
                -3.84282590D-02 1.57204861D-03 2.32771000D-02
                -1.66593843D-02 1.48773207D-02-5.04874758D-02
                 2.77947115D-02 1.41540590D-01 2.49768342D-02
                -2.75283918D-02 1.70175789D-02 3.74234315D-02
                -1.79020076D-02-9.47232380D-03 5.13677390D-02
                -2.26037430D-02 1.42674905D-01 2.32657335D-02
                 2.80661705D-02 1.59900349D-02 3.74163175D-02
                -3.35917835D-02 1.19549351D-03 4.08020895D-04
                 1.13609686D-03 3.62072078D-02 2.40916691D-02
                 1.10328949D-03 6.89853961D-02-7.96792549D-03
 -------------------------------------------------------------------
 Center     Atomic                   Forces (Hartrees/Bohr)
 Number     Number              X              Y              Z
 -------------------------------------------------------------------
      1        6          -0.000000997    0.000004577   -0.000020490
      2        6          -0.000006220    0.000000297    0.000063842
      3        1           0.000028287   -0.000002024   -0.000017600
      4        1          -0.000028398    0.000000324   -0.000017781
      5        1          -0.000011952    0.000000719   -0.000004131
      6        1           0.000012336   -0.000016029   -0.000007382
      7        1           0.000006944    0.000012136    0.000003542
 -------------------------------------------------------------------
 Cartesian Forces:  Max     0.000063842 RMS     0.000019055
 Force constants in Cartesian coordinates: 
                1             2             3             4             5 
      1  0.649509D+00
      2 -0.896307D-02  0.114909D+00
      3 -0.237757D-03 -0.924661D-02  0.818708D+00
      4 -0.113731D+00  0.113421D-02  0.679026D-03  0.647901D+00
      5  0.113915D-02 -0.460790D-01  0.421678D-01 -0.970180D-02  0.658855D-01
      6  0.141938D-03  0.821741D-02 -0.519451D+00 -0.144892D-02 -0.800871D-01
      7 -0.272637D+00  0.540729D-03  0.127814D+00  0.448270D-02  0.657035D-03
      8 -0.705579D-04 -0.362397D-01  0.119657D-02  0.758695D-03  0.599780D-02
      9  0.123609D+00 -0.239613D-03 -0.131249D+00  0.296662D-01  0.465717D-03
     10 -0.272271D+00  0.737109D-02 -0.127622D+00  0.443815D-02 -0.607597D-03
     11  0.798027D-02 -0.365675D-01  0.549536D-02 -0.704863D-03  0.603131D-02
     12 -0.123467D+00  0.391890D-02 -0.131229D+00 -0.296337D-01  0.145758D-02
     13  0.431431D-02 -0.172610D-03  0.160444D-02 -0.269234D+00  0.209608D-01
     14 -0.374885D-03  0.454037D-02 -0.587800D-02  0.213668D-01 -0.320218D-01
     15 -0.297357D-01  0.247809D-02 -0.129782D-01 -0.122106D+00  0.140347D-01
     16  0.433570D-02  0.177650D-03 -0.179490D-02 -0.270546D+00 -0.129879D-01
     17  0.383395D-03  0.452017D-02 -0.583854D-02 -0.134075D-01 -0.307568D-01
     18  0.297983D-01  0.148171D-02 -0.129829D-01  0.122650D+00  0.999747D-02
     19  0.480314D-03 -0.879908D-04 -0.443251D-03 -0.331013D-02  0.540292D-03
     20 -0.942959D-04 -0.508319D-02 -0.278965D-01  0.554426D-03  0.309430D-01
     21 -0.108892D-03 -0.660988D-02 -0.108177D-01  0.193412D-03  0.119639D-01
                6             7             8             9            10 
      6  0.797018D+00
      7 -0.191086D-02  0.280847D+00
      8 -0.833336D-03 -0.486630D-03  0.225537D-01
      9 -0.129271D-01 -0.138595D+00 -0.229401D-03  0.137778D+00
     10  0.188184D-02 -0.151543D-01  0.724229D-03 -0.136164D-01  0.280475D+00
     11 -0.899747D-03 -0.955790D-04  0.376746D-02  0.793223D-04 -0.815194D-02
     12 -0.129226D-01  0.136116D-01 -0.377180D-03  0.100176D-01  0.138429D+00
     13 -0.125439D+00  0.102230D-02 -0.514023D-03 -0.216554D-03  0.149975D-02
     14  0.222625D-01 -0.181769D-03 -0.770973D-02 -0.935740D-04  0.136953D-03
     15 -0.129815D+00  0.216841D-03 -0.564159D-03  0.118822D-02  0.932049D-03
     16  0.126248D+00  0.148540D-02 -0.315255D-03 -0.891374D-03  0.103528D-02
     17  0.181127D-01  0.191587D-03  0.113957D-01 -0.108451D-03 -0.108062D-03
     18 -0.129874D+00 -0.915734D-03  0.534101D-03 -0.484861D-02 -0.234962D-03
     19  0.527414D-03 -0.463467D-04 -0.964579D-04  0.445605D-04 -0.229891D-04
     20  0.332276D-01 -0.625373D-03  0.234890D-03  0.126000D-03  0.635334D-03
     21  0.797152D-02 -0.220498D-03  0.273410D-03  0.403935D-04  0.230016D-03
               11            12            13            14            15 
     11  0.228896D-01
     12 -0.488605D-02  0.137756D+00
     13  0.643427D-03  0.885599D-03  0.277607D+00
     14  0.113854D-01 -0.140737D-03 -0.225284D-01  0.302182D-01
     15  0.500773D-03 -0.485033D-02  0.136797D+00 -0.138686D-01  0.136650D+00
     16  0.223322D-03  0.214218D-03 -0.151843D-01 -0.155377D-02  0.133234D-01
     17 -0.772164D-02 -0.992095D-04  0.212816D-02  0.186274D-02 -0.213470D-02
     18 -0.558259D-03  0.118817D-02 -0.133864D-01 -0.169203D-02  0.959872D-02
     19  0.105371D-03 -0.399787D-04 -0.244110D-04  0.313500D-02  0.572382D-03
     20  0.215336D-03  0.126703D-03 -0.517420D-03 -0.827520D-02 -0.446097D-03
     21  0.268607D-03  0.407723D-04 -0.245070D-03 -0.589529D-03  0.206820D-03
               16            17            18            19            20 
     16  0.278993D+00
     17  0.142134D-01  0.289063D-01
     18 -0.137325D+00 -0.932917D-02  0.136712D+00
     19 -0.118873D-03 -0.340099D-02 -0.586405D-03  0.304244D-02
     20  0.242553D-03 -0.820647D-02 -0.433819D-03 -0.195224D-03 -0.982834D-02
     21  0.225752D-03 -0.602638D-03  0.207216D-03 -0.747211D-04 -0.470384D-02
               21 
     21  0.235097D-02
 Cartesian forces in FCRed:
 I=    1 X=  -9.974039234936D-07 Y=   4.576513607080D-06 Z=  -2.048968154877D-05
 I=    2 X=  -6.219576107971D-06 Y=   2.973662583394D-07 Z=   6.384159024808D-05
 I=    3 X=   2.828657388410D-05 Y=  -2.023503401401D-06 Z=  -1.759997130679D-05
 I=    4 X=  -2.839770222041D-05 Y=   3.237836096459D-07 Z=  -1.778113698014D-05
 I=    5 X=  -1.195180467972D-05 Y=   7.188776729172D-07 Z=  -4.131376088568D-06
 I=    6 X=   1.233607443707D-05 Y=  -1.602906987208D-05 Z=  -7.381790712468D-06
 I=    7 X=   6.943838584971D-06 Y=   1.213603212480D-05 Z=   3.542366428938D-06
 Cartesian force constants in FCRed: 
                1             2             3             4             5 
      1  0.649509D+00
      2 -0.896307D-02  0.114909D+00
      3 -0.237757D-03 -0.924661D-02  0.818708D+00
      4 -0.113731D+00  0.113421D-02  0.679026D-03  0.647901D+00
      5  0.113915D-02 -0.460790D-01  0.421678D-01 -0.970180D-02  0.658855D-01
      6  0.141938D-03  0.821741D-02 -0.519451D+00 -0.144892D-02 -0.800871D-01
      7 -0.272637D+00  0.540729D-03  0.127814D+00  0.448270D-02  0.657035D-03
      8 -0.705579D-04 -0.362397D-01  0.119657D-02  0.758695D-03  0.599780D-02
      9  0.123609D+00 -0.239613D-03 -0.131249D+00  0.296662D-01  0.465717D-03
     10 -0.272271D+00  0.737109D-02 -0.127622D+00  0.443815D-02 -0.607597D-03
     11  0.798027D-02 -0.365675D-01  0.549536D-02 -0.704863D-03  0.603131D-02
     12 -0.123467D+00  0.391890D-02 -0.131229D+00 -0.296337D-01  0.145758D-02
     13  0.431431D-02 -0.172610D-03  0.160444D-02 -0.269234D+00  0.209608D-01
     14 -0.374885D-03  0.454037D-02 -0.587800D-02  0.213668D-01 -0.320218D-01
     15 -0.297357D-01  0.247809D-02 -0.129782D-01 -0.122106D+00  0.140347D-01
     16  0.433570D-02  0.177650D-03 -0.179490D-02 -0.270546D+00 -0.129879D-01
     17  0.383395D-03  0.452017D-02 -0.583854D-02 -0.134075D-01 -0.307568D-01
     18  0.297983D-01  0.148171D-02 -0.129829D-01  0.122650D+00  0.999747D-02
     19  0.480314D-03 -0.879908D-04 -0.443251D-03 -0.331013D-02  0.540292D-03
     20 -0.942959D-04 -0.508319D-02 -0.278965D-01  0.554426D-03  0.309430D-01
     21 -0.108892D-03 -0.660988D-02 -0.108177D-01  0.193412D-03  0.119639D-01
                6             7             8             9            10 
      6  0.797018D+00
      7 -0.191086D-02  0.280847D+00
      8 -0.833336D-03 -0.486630D-03  0.225537D-01
      9 -0.129271D-01 -0.138595D+00 -0.229401D-03  0.137778D+00
     10  0.188184D-02 -0.151543D-01  0.724229D-03 -0.136164D-01  0.280475D+00
     11 -0.899747D-03 -0.955790D-04  0.376746D-02  0.793223D-04 -0.815194D-02
     12 -0.129226D-01  0.136116D-01 -0.377180D-03  0.100176D-01  0.138429D+00
     13 -0.125439D+00  0.102230D-02 -0.514023D-03 -0.216554D-03  0.149975D-02
     14  0.222625D-01 -0.181769D-03 -0.770973D-02 -0.935740D-04  0.136953D-03
     15 -0.129815D+00  0.216841D-03 -0.564159D-03  0.118822D-02  0.932049D-03
     16  0.126248D+00  0.148540D-02 -0.315255D-03 -0.891374D-03  0.103528D-02
     17  0.181127D-01  0.191587D-03  0.113957D-01 -0.108451D-03 -0.108062D-03
     18 -0.129874D+00 -0.915734D-03  0.534101D-03 -0.484861D-02 -0.234962D-03
     19  0.527414D-03 -0.463467D-04 -0.964579D-04  0.445605D-04 -0.229891D-04
     20  0.332276D-01 -0.625373D-03  0.234890D-03  0.126000D-03  0.635334D-03
     21  0.797152D-02 -0.220498D-03  0.273410D-03  0.403935D-04  0.230016D-03
               11            12            13            14            15 
     11  0.228896D-01
     12 -0.488605D-02  0.137756D+00
     13  0.643427D-03  0.885599D-03  0.277607D+00
     14  0.113854D-01 -0.140737D-03 -0.225284D-01  0.302182D-01
     15  0.500773D-03 -0.485033D-02  0.136797D+00 -0.138686D-01  0.136650D+00
     16  0.223322D-03  0.214218D-03 -0.151843D-01 -0.155377D-02  0.133234D-01
     17 -0.772164D-02 -0.992095D-04  0.212816D-02  0.186274D-02 -0.213470D-02
     18 -0.558259D-03  0.118817D-02 -0.133864D-01 -0.169203D-02  0.959872D-02
     19  0.105371D-03 -0.399787D-04 -0.244110D-04  0.313500D-02  0.572382D-03
     20  0.215336D-03  0.126703D-03 -0.517420D-03 -0.827520D-02 -0.446097D-03
     21  0.268607D-03  0.407723D-04 -0.245070D-03 -0.589529D-03  0.206820D-03
               16            17            18            19            20 
     16  0.278993D+00
     17  0.142134D-01  0.289063D-01
     18 -0.137325D+00 -0.932917D-02  0.136712D+00
     19 -0.118873D-03 -0.340099D-02 -0.586405D-03  0.304244D-02
     20  0.242553D-03 -0.820647D-02 -0.433819D-03 -0.195224D-03 -0.982834D-02
     21  0.225752D-03 -0.602638D-03  0.207216D-03 -0.747211D-04 -0.470384D-02
               21 
     21  0.235097D-02
 Internal forces: 
                 1 
      1   0.551269D-04
      2   0.333068D-04
      3   0.332122D-04
      4  -0.124216D-04
      5  -0.132367D-04
      6   0.132970D-04
      7   0.000000D+00
      8   0.000000D+00
      9   0.000000D+00
     10   0.273619D-05
     11   0.000000D+00
     12  -0.265562D-05
     13  -0.329532D-05
     14  -0.338972D-05
     15   0.128276D-04
     16   0.000000D+00
     17   0.968571D-05
     18  -0.409693D-05
     19  -0.242221D-05
     20   0.648499D-05
     21  -0.729766D-05
 Internal force constants: 
                1             2             3             4             5 
      1  0.589324D+00
      2  0.622109D-02  0.365280D+00
      3  0.622104D-02  0.162608D-02  0.365121D+00
      4  0.622403D-02  0.617779D-03 -0.574929D-03  0.363105D+00
      5  0.622945D-02 -0.573996D-03  0.617810D-03  0.171039D-02  0.363364D+00
      6  0.295591D-01 -0.635171D-03 -0.636802D-03 -0.760242D-05 -0.844624D-05
      7  0.106604D-01  0.497143D-02 -0.111613D-01 -0.286530D-02  0.389748D-02
      8  0.106541D-01 -0.111590D-01  0.498013D-02  0.390620D-02 -0.285945D-02
      9 -0.212741D-01  0.619102D-02  0.618484D-02 -0.103740D-02 -0.103443D-02
     10  0.105288D-01 -0.269562D-02  0.374068D-02  0.479006D-02 -0.107480D-01
     11  0.105288D-01  0.373704D-02 -0.269749D-02 -0.107436D-01  0.480529D-02
     12  0.187470D-02 -0.210277D-03 -0.202856D-03  0.134869D-03  0.137451D-03
     13 -0.198800D-01 -0.101123D-02 -0.101312D-02  0.603652D-02  0.602627D-02
     14 -0.691082D-02  0.421310D-03 -0.624421D-03 -0.854369D-03  0.145076D-02
     15 -0.691802D-02 -0.611236D-03  0.423261D-03  0.144356D-02 -0.860592D-03
     16  0.412795D-02  0.346289D-03  0.358927D-04  0.219511D-03  0.106163D-02
     17 -0.306480D-02  0.206776D-03 -0.102529D-03 -0.952611D-03 -0.113833D-03
     18  0.539729D-03 -0.210384D-03  0.445618D-03  0.927913D-03 -0.817973D-03
     19  0.305689D-02  0.103890D-03 -0.215114D-03  0.111634D-03  0.950184D-03
     20 -0.413586D-02 -0.356233D-04 -0.353535D-03 -0.106049D-02 -0.225276D-03
     21 -0.531332D-03 -0.452783D-03  0.194611D-03  0.820036D-03 -0.929416D-03
                6             7             8             9            10 
      6 -0.114105D-01
      7  0.155445D-03  0.805585D-01
      8  0.156181D-03 -0.446910D-01  0.805800D-01
      9 -0.320863D-03 -0.358382D-01 -0.358599D-01  0.716533D-01
     10 -0.402036D-03 -0.878764D-02  0.102540D-01 -0.146599D-02  0.758859D-01
     11 -0.407580D-03  0.102657D-01 -0.878913D-02 -0.147633D-02 -0.407559D-01
     12  0.161818D-02 -0.146133D-03 -0.150580D-03  0.302076D-03 -0.369017D-02
     13 -0.623160D-03 -0.144798D-02 -0.143624D-02  0.287357D-02 -0.348191D-01
     14  0.375379D-02  0.114389D-02 -0.148439D-02  0.369383D-03 -0.115961D-01
     15  0.377606D-02 -0.148801D-02  0.114506D-02  0.371906D-03  0.601423D-02
     16 -0.565081D-02  0.915006D-03 -0.433240D-03 -0.274945D-03 -0.337693D-02
     17  0.531992D-02  0.815608D-03 -0.522791D-03 -0.834044D-05 -0.263008D-02
     18 -0.177560D-03 -0.837583D-03  0.122507D-02 -0.141862D-03  0.651367D-02
     19 -0.530851D-02  0.526534D-03 -0.813848D-03  0.236821D-05 -0.336268D-02
     20  0.566222D-02  0.427137D-03 -0.903399D-03  0.268973D-03 -0.261583D-02
     21  0.164745D-03 -0.122605D-02  0.844466D-03  0.135451D-03  0.652793D-02
               11            12            13            14            15 
     11  0.758602D-01
     12 -0.366249D-02  0.276894D-01
     13 -0.347962D-01  0.599240D-02  0.694859D-01
     14  0.603292D-02 -0.932398D-02  0.465839D-02  0.146561D-01
     15 -0.115495D-01 -0.932783D-02  0.463455D-02  0.192727D-02  0.146195D-01
     16  0.260536D-02 -0.481668D-02  0.244815D-02 -0.634429D-02  0.937994D-03
     17  0.337144D-02  0.500973D-02 -0.278238D-02  0.131607D-03  0.738509D-02
     18 -0.652972D-02  0.969809D-04 -0.168400D-03  0.160226D-02 -0.540101D-03
     19  0.262537D-02 -0.501763D-02  0.278172D-02 -0.740250D-02 -0.123237D-03
     20  0.339145D-02  0.480879D-02 -0.244881D-02 -0.926603D-03  0.632386D-02
     21 -0.650971D-02 -0.103960D-03  0.165171D-03  0.544049D-03 -0.160133D-02
               16            17            18            19            20 
     16  0.161061D-01
     17  0.311481D-02  0.189124D-01
     18  0.412235D-02  0.554253D-02  0.840712D-02
     19  0.858227D-02 -0.724101D-02 -0.481677D-02  0.189553D-01
     20 -0.440901D-02  0.855654D-02 -0.339659D-02  0.313199D-02  0.160975D-01
     21 -0.340147D-02 -0.481330D-02 -0.531996D-03  0.555624D-02  0.414441D-02
               21 
     21  0.842571D-02
 Force constants in internal coordinates: 
                1             2             3             4             5 
      1  0.589324D+00
      2  0.622109D-02  0.365280D+00
      3  0.622104D-02  0.162608D-02  0.365121D+00
      4  0.622403D-02  0.617779D-03 -0.574929D-03  0.363105D+00
      5  0.622945D-02 -0.573996D-03  0.617810D-03  0.171039D-02  0.363364D+00
      6  0.295591D-01 -0.635171D-03 -0.636802D-03 -0.760242D-05 -0.844624D-05
      7  0.106604D-01  0.497143D-02 -0.111613D-01 -0.286530D-02  0.389748D-02
      8  0.106541D-01 -0.111590D-01  0.498013D-02  0.390620D-02 -0.285945D-02
      9 -0.212741D-01  0.619102D-02  0.618484D-02 -0.103740D-02 -0.103443D-02
     10  0.105288D-01 -0.269562D-02  0.374068D-02  0.479006D-02 -0.107480D-01
     11  0.105288D-01  0.373704D-02 -0.269749D-02 -0.107436D-01  0.480529D-02
     12  0.187470D-02 -0.210277D-03 -0.202856D-03  0.134869D-03  0.137451D-03
     13 -0.198800D-01 -0.101123D-02 -0.101312D-02  0.603652D-02  0.602627D-02
     14 -0.691082D-02  0.421310D-03 -0.624421D-03 -0.854369D-03  0.145076D-02
     15 -0.691802D-02 -0.611236D-03  0.423261D-03  0.144356D-02 -0.860592D-03
     16  0.412795D-02  0.346289D-03  0.358927D-04  0.219511D-03  0.106163D-02
     17 -0.306480D-02  0.206776D-03 -0.102529D-03 -0.952611D-03 -0.113833D-03
     18  0.539729D-03 -0.210384D-03  0.445618D-03  0.927913D-03 -0.817973D-03
     19  0.305689D-02  0.103890D-03 -0.215114D-03  0.111634D-03  0.950184D-03
     20 -0.413586D-02 -0.356233D-04 -0.353535D-03 -0.106049D-02 -0.225276D-03
     21 -0.531332D-03 -0.452783D-03  0.194611D-03  0.820036D-03 -0.929416D-03
                6             7             8             9            10 
      6 -0.114105D-01
      7  0.155445D-03  0.805585D-01
      8  0.156181D-03 -0.446910D-01  0.805800D-01
      9 -0.320863D-03 -0.358382D-01 -0.358599D-01  0.716533D-01
     10 -0.402036D-03 -0.878764D-02  0.102540D-01 -0.146599D-02  0.758859D-01
     11 -0.407580D-03  0.102657D-01 -0.878913D-02 -0.147633D-02 -0.407559D-01
     12  0.161818D-02 -0.146133D-03 -0.150580D-03  0.302076D-03 -0.369017D-02
     13 -0.623160D-03 -0.144798D-02 -0.143624D-02  0.287357D-02 -0.348191D-01
     14  0.375379D-02  0.114389D-02 -0.148439D-02  0.369383D-03 -0.115961D-01
     15  0.377606D-02 -0.148801D-02  0.114506D-02  0.371906D-03  0.601423D-02
     16 -0.565081D-02  0.915006D-03 -0.433240D-03 -0.274945D-03 -0.337693D-02
     17  0.531992D-02  0.815608D-03 -0.522791D-03 -0.834044D-05 -0.263008D-02
     18 -0.177560D-03 -0.837583D-03  0.122507D-02 -0.141862D-03  0.651367D-02
     19 -0.530851D-02  0.526534D-03 -0.813848D-03  0.236821D-05 -0.336268D-02
     20  0.566222D-02  0.427137D-03 -0.903399D-03  0.268973D-03 -0.261583D-02
     21  0.164745D-03 -0.122605D-02  0.844466D-03  0.135451D-03  0.652793D-02
               11            12            13            14            15 
     11  0.758602D-01
     12 -0.366249D-02  0.276894D-01
     13 -0.347962D-01  0.599240D-02  0.694859D-01
     14  0.603292D-02 -0.932398D-02  0.465839D-02  0.146561D-01
     15 -0.115495D-01 -0.932783D-02  0.463455D-02  0.192727D-02  0.146195D-01
     16  0.260536D-02 -0.481668D-02  0.244815D-02 -0.634429D-02  0.937994D-03
     17  0.337144D-02  0.500973D-02 -0.278238D-02  0.131607D-03  0.738509D-02
     18 -0.652972D-02  0.969809D-04 -0.168400D-03  0.160226D-02 -0.540101D-03
     19  0.262537D-02 -0.501763D-02  0.278172D-02 -0.740250D-02 -0.123237D-03
     20  0.339145D-02  0.480879D-02 -0.244881D-02 -0.926603D-03  0.632386D-02
     21 -0.650971D-02 -0.103960D-03  0.165171D-03  0.544049D-03 -0.160133D-02
               16            17            18            19            20 
     16  0.161061D-01
     17  0.311481D-02  0.189124D-01
     18  0.412235D-02  0.554253D-02  0.840712D-02
     19  0.858227D-02 -0.724101D-02 -0.481677D-02  0.189553D-01
     20 -0.440901D-02  0.855654D-02 -0.339659D-02  0.313199D-02  0.160975D-01
     21 -0.340147D-02 -0.481330D-02 -0.531996D-03  0.555624D-02  0.414441D-02
               21 
     21  0.842571D-02
 Final forces over variables, Energy=-7.90571475D+01:
  5.51269143D-05 3.33067963D-05 3.32121630D-05-1.24216247D-05
 -1.32367412D-05 1.32970220D-05-7.46718116D-07 9.50602744D-07
 -1.15901162D-07 2.73618711D-06-5.71389322D-07-2.65561850D-06
 -3.29531914D-06-3.38972114D-06 1.28276290D-05 7.78517813D-07
  9.68571365D-06-4.09693246D-06-2.42220879D-06 6.48498705D-06
 -7.29765906D-06
 IRC-IRC-IRC-IRC-IRC-IRC-IRC-IRC-IRC-IRC-IRC-IRC-IRC-IRC-IRC-IRC-IRC-IRC
          ******** Start new reaction path calculation ********
 Supplied step size of   0.0300 bohr.
    Integration on MW PES will use step size of   0.0321 sqrt(amu)*bohr.
 Point Number:   0          Path Number:   1
 Calculating another point on the path.
 IRC-IRC-IRC-IRC-IRC-IRC-IRC-IRC-IRC-IRC-IRC-IRC-IRC-IRC-IRC-IRC-IRC-IRC
                          Input orientation:                          
 ---------------------------------------------------------------------
 Center     Atomic      Atomic             Coordinates (Angstroms)
 Number     Number       Type             X           Y           Z
 ---------------------------------------------------------------------
      1          6           0       -0.001004   -0.062425   -0.712449
      2          6           0       -0.000977   -0.060735    0.627033
      3          1           0        0.923182   -0.062358   -1.277723
      4          1           0       -0.924668   -0.031308   -1.277718
      5          1           0        0.920305   -0.153268    1.190497
      6          1           0       -0.924819   -0.122437    1.190523
      7          1           0        0.029581    1.835815    1.191452
 ---------------------------------------------------------------------
                    Distance matrix (angstroms):
                    1          2          3          4          5
     1  C    0.000000
     2  C    1.339483   0.000000
     3  H    1.083353   2.117112   0.000000
     4  H    1.083353   2.117109   1.848110   0.000000
     5  H    2.116191   1.083888   2.469894   3.083972   0.000000
     6  H    2.116209   1.083888   3.083983   2.469923   1.845381
     7  H    2.688697   1.978991   3.240125   3.239374   2.179413
                    6          7
     6  H    0.000000
     7  H    2.178447   0.000000
 Symmetry turned off by external request.
 Stoichiometry    C2H5(2)
 Framework group  C1[X(C2H5)]
 Deg. of freedom    15
 Full point group                 C1      NOp   1
 Rotational constants (GHZ):     75.5982437     23.0572428     22.8598102
 Standard basis: 6-311+G(d,p) (5D, 7F)
 Integral buffers will be    131072 words long.
 Raffenetti 2 integral format.
 Two-electron integral symmetry is turned off.
    74 basis functions,   112 primitive gaussians,    76 cartesian basis functions
     9 alpha electrons        8 beta electrons
       nuclear repulsion energy        36.8849928670 Hartrees.
 NAtoms=    7 NActive=    7 NUniq=    7 SFac= 7.50D-01 NAtFMM=   80 NAOKFM=F Big=F
 One-electron integrals computed using PRISM.
 NBasis=    74 RedAO= T  NBF=    74
 NBsUse=    74 1.00D-06 NBFU=    74
 Initial guess read from the read-write file.
 B after Tr=     0.000000    0.000000    0.000000
         Rot=    1.000000    0.000000    0.000000    0.000000 Ang=   0.00 deg.
 Initial guess <Sx>= 0.0000 <Sy>= 0.0000 <Sz>= 0.5000 <S**2>= 0.7660 S= 0.5080
 Harris functional with IExCor= 1009 diagonalized for initial guess.
 ExpMin= 4.38D-02 ExpMax= 4.56D+03 ExpMxC= 6.82D+02 IAcc=3 IRadAn=         5 AccDes= 0.00D+00
 HarFok:  IExCor= 1009 AccDes= 0.00D+00 IRadAn=         5 IDoV= 1
 ScaDFX=  1.000000  1.000000  1.000000  1.000000
 FoFCou: FMM=F IPFlag=           0 FMFlag=      100000 FMFlg1=           0
         NFxFlg=           0 DoJE=T BraDBF=F KetDBF=T FulRan=T
         Omega=  0.000000  0.000000  1.000000  0.000000  0.000000 ICntrl=     500 IOpCl=  0
         NMat0=    1 NMatS0=    1 NMatT0=    0 NMatD0=    1 NMtDS0=    0 NMtDT0=    0
         I1Cent=           4 NGrid=           0.
 Symmetry not used in FoFCou.
 Requested convergence on RMS density matrix=1.00D-08 within 128 cycles.
 Requested convergence on MAX density matrix=1.00D-06.
 Requested convergence on             energy=1.00D-06.
 No special actions if energy rises.
 Keep R1 and R2 ints in memory in canonical form, NReq=9662670.
 SCF Done:  E(UM062X) =  -79.0571571596     A.U. after   11 cycles
             Convg  =    0.4011D-08             -V/T =  2.0046
 <Sx>= 0.0000 <Sy>= 0.0000 <Sz>= 0.5000 <S**2>= 0.7671 S= 0.5085
 <L.S>=  0.00000000000    
 Annihilation of the first spin contaminant:
 S**2 before annihilation     0.7671,   after     0.7500
 Range of M.O.s used for correlation:     1    74
 NBasis=    74 NAE=     9 NBE=     8 NFC=     0 NFV=     0
 NROrb=     74 NOA=     9 NOB=     8 NVA=    65 NVB=    66

 **** Warning!!: The largest alpha MO coefficient is  0.46090600D+02


 **** Warning!!: The largest beta MO coefficient is  0.46620183D+02

 Symmetrizing basis deriv contribution to polar:
 IMax=3 JMax=2 DiffMx= 0.00D+00
 G2DrvN: will do     8 centers at a time, making    1 passes doing MaxLOS=2.
 Calling FoFCou, ICntrl=  3107 FMM=F I1Cent=   0 AccDes= 0.00D+00.
 FoFDir/FoFCou used for L=0 through L=2.
 End of G2Drv Frequency-dependent properties file   721 does not exist.
 End of G2Drv Frequency-dependent properties file   722 does not exist.
          IDoAtm=1111111
          Differentiating once with respect to electric field.
                with respect to dipole field.
          Differentiating once with respect to nuclear coordinates.
          Keep R1 and R2 ints in memory in canonical form, NReq=9387419.
          There are    24 degrees of freedom in the 1st order CPHF.  IDoFFX=5.
     21 vectors produced by pass  0 Test12= 4.64D-15 4.17D-09 XBig12= 5.13D+01 3.75D+00.
 AX will form    21 AO Fock derivatives at one time.
     21 vectors produced by pass  1 Test12= 4.64D-15 4.17D-09 XBig12= 2.93D+00 5.09D-01.
     21 vectors produced by pass  2 Test12= 4.64D-15 4.17D-09 XBig12= 7.63D-02 6.65D-02.
     21 vectors produced by pass  3 Test12= 4.64D-15 4.17D-09 XBig12= 4.72D-04 4.60D-03.
     21 vectors produced by pass  4 Test12= 4.64D-15 4.17D-09 XBig12= 3.27D-06 4.96D-04.
     21 vectors produced by pass  5 Test12= 4.64D-15 4.17D-09 XBig12= 2.56D-08 3.40D-05.
     15 vectors produced by pass  6 Test12= 4.64D-15 4.17D-09 XBig12= 1.89D-10 2.68D-06.
      5 vectors produced by pass  7 Test12= 4.64D-15 4.17D-09 XBig12= 6.75D-13 1.61D-07.
      2 vectors produced by pass  8 Test12= 4.64D-15 4.17D-09 XBig12= 2.81D-15 8.37D-09.
 Inverted reduced A of dimension   148 with in-core refinement.
 Isotropic polarizability for W=    0.000000       30.75 Bohr**3.
 End of Minotr Frequency-dependent properties file   721 does not exist.
 End of Minotr Frequency-dependent properties file   722 does not exist.
 Entering OneElI...
 Calculate overlap and kinetic energy integrals
    NBasis =  76  MinDer = 2  MaxDer = 2
 Requested accuracy = 0.1000D-12
 PrsmSu:  NPrtUS=  12 ThrOK=T IAlg=1
 PRISM was handed    17459111 working-precision words and   528 shell-pairs
 PRISM was handed    17459111 working-precision words and   528 shell-pairs
 PRISM was handed    17459111 working-precision words and   528 shell-pairs
 PRISM was handed    17459111 working-precision words and   528 shell-pairs
 PRISM was handed    17459111 working-precision words and   528 shell-pairs
 PRISM was handed    17459111 working-precision words and   528 shell-pairs
 PRISM was handed    17459111 working-precision words and   528 shell-pairs
 PRISM was handed    17459111 working-precision words and   528 shell-pairs
 PRISM was handed    17459111 working-precision words and   528 shell-pairs
 PRISM was handed    17459111 working-precision words and   528 shell-pairs
 PRISM was handed    17459111 working-precision words and   528 shell-pairs
 PRISM was handed    17459111 working-precision words and   528 shell-pairs
 IPart= 11 NShTot=          33 NBatch=          14 AvBLen=         2.4
 IPart= 10 NShTot=          33 NBatch=          14 AvBLen=         2.4
 IPart=  7 NShTot=          39 NBatch=          18 AvBLen=         2.2
 IPart=  4 NShTot=          44 NBatch=          21 AvBLen=         2.1
 IPart=  8 NShTot=          38 NBatch=          18 AvBLen=         2.1
 IPart=  9 NShTot=          37 NBatch=          18 AvBLen=         2.1
 IPart=  5 NShTot=          41 NBatch=          18 AvBLen=         2.3
 IPart=  6 NShTot=          40 NBatch=          18 AvBLen=         2.2
 IPart=  3 NShTot=          49 NBatch=          26 AvBLen=         1.9
 IPart=  2 NShTot=          53 NBatch=          29 AvBLen=         1.8
 IPart=  0 NShTot=          62 NBatch=          33 AvBLen=         1.9
 IPart=  1 NShTot=          59 NBatch=          32 AvBLen=         1.8
 Entering OneElI...
 Calculate potential energy integrals
    NBasis =  76  MinDer = 2  MaxDer = 2
 Requested accuracy = 0.1000D-12
 PrsmSu:  NPrtUS=  12 ThrOK=T IAlg=1
 PRISM was handed    17460300 working-precision words and   528 shell-pairs
 PRISM was handed    17460300 working-precision words and   528 shell-pairs
 PRISM was handed    17460300 working-precision words and   528 shell-pairs
 PRISM was handed    17460300 working-precision words and   528 shell-pairs
 PRISM was handed    17460300 working-precision words and   528 shell-pairs
 PRISM was handed    17460300 working-precision words and   528 shell-pairs
 PRISM was handed    17460300 working-precision words and   528 shell-pairs
 PRISM was handed    17460300 working-precision words and   528 shell-pairs
 PRISM was handed    17460300 working-precision words and   528 shell-pairs
 PRISM was handed    17460300 working-precision words and   528 shell-pairs
[...]
     20  0.987090D-02  0.357267D-03 -0.112537D-02  0.473210D-03 -0.273296D-02
     21  0.237880D-03 -0.139740D-02  0.863530D-03  0.186072D-03  0.702302D-02
               11            12            13            14            15 
     11  0.759872D-01
     12 -0.494555D-02  0.455089D-01
     13 -0.347309D-01  0.714457D-02  0.685596D-01
     14  0.734510D-02 -0.174247D-01  0.489392D-02  0.214530D-01
     15 -0.134971D-01 -0.174251D-01  0.488112D-02  0.298885D-02  0.214754D-01
     16  0.273024D-02 -0.600040D-02  0.268220D-02 -0.637358D-02  0.224299D-02
     17  0.269025D-02  0.588531D-02 -0.305764D-02 -0.115418D-02  0.749507D-02
     18 -0.702326D-02 -0.581520D-04 -0.176865D-03  0.353108D-02 -0.244377D-02
     19  0.280873D-02 -0.589447D-02  0.304408D-02 -0.746134D-02  0.114372D-02
     20  0.276874D-02  0.599125D-02 -0.269576D-02 -0.224193D-02  0.639580D-02
     21 -0.694477D-02  0.477867D-04  0.185013D-03  0.244333D-02 -0.354304D-02
               16            17            18            19            20 
     16  0.154328D-01
     17  0.262936D-02  0.179402D-01
     18  0.267393D-02  0.390509D-02  0.966852D-02
     19  0.852390D-02 -0.676804D-02 -0.547172D-02  0.179293D-01
     20 -0.427954D-02  0.854277D-02 -0.424056D-02  0.263731D-02  0.154596D-01
     21 -0.423497D-02 -0.549231D-02  0.152287D-02  0.393363D-02  0.267629D-02
               21 
     21  0.969148D-02
 Final forces over variables, Energy=-7.90585966D+01:
  4.12661246D-03 9.38700563D-05 9.40298791D-05 1.62968162D-04
  1.63740965D-04-9.79268521D-03 8.34846401D-05 8.46346367D-05
 -1.68441407D-04-4.05219764D-05-4.24424424D-05-6.54321705D-06
 -3.09375728D-04 7.77987173D-04 7.84377017D-04-9.45854806D-04
  9.32772951D-04-1.00705080D-05-9.33373355D-04 9.45254402D-04
  2.41094344D-06
 IRC-IRC-IRC-IRC-IRC-IRC-IRC-IRC-IRC-IRC-IRC-IRC-IRC-IRC-IRC-IRC-IRC-IRC
 Pt 10 Step number   1 out of a maximum of  20
 CORRECTOR INTEGRATION CONVERGENCE:
   Recorrection delta-x convergence threshold:    0.010000
   Delta-x Convergence Met
 Point Number:  10          Path Number:   1
   CHANGE IN THE REACTION COORDINATE =    0.03205
   NET REACTION COORDINATE UP TO THIS POINT =    0.32049
  # OF POINTS ALONG THE PATH =  10
  # OF STEPS =   1

 Maximum number of steps reached.
 Calculation of FORWARD path complete.
 Reaction path calculation complete.
 
 Energies reported relative to the TS energy of         -79.057147
 --------------------------------------------------------------------------
    Summary of reaction path following
 --------------------------------------------------------------------------
                        Energy   Rx Coord
   1                    0.00000   0.00000
   2                   -0.00001   0.03204
   3                   -0.00004   0.06409
   4                   -0.00010   0.09614
   5                   -0.00018   0.12819
   6                   -0.00029   0.16024
   7                   -0.00044   0.19229
   8                   -0.00063   0.22434
   9                   -0.00085   0.25639
  10                   -0.00113   0.28844
  11                   -0.00145   0.32049
 --------------------------------------------------------------------------
 
 Total number of points:                   10
 Total number of gradient calculations:    11
 Total number of Hessian calculations:     11
 IRC-IRC-IRC-IRC-IRC-IRC-IRC-IRC-IRC-IRC-IRC-IRC-IRC-IRC-IRC-IRC-IRC-IRC
                          Input orientation:                          
 ---------------------------------------------------------------------
 Center     Atomic      Atomic             Coordinates (Angstroms)
 Number     Number       Type             X           Y           Z
 ---------------------------------------------------------------------
      1          6           0       -0.001022   -0.063361   -0.715915
      2          6           0       -0.000751   -0.045668    0.634034
      3          1           0        0.923430   -0.062152   -1.279501
      4          1           0       -0.924909   -0.031424   -1.279522
      5          1           0        0.919518   -0.171618    1.192219
      6          1           0       -0.924682   -0.141271    1.192189
      7          1           0        0.027751    1.704659    1.149558
 ---------------------------------------------------------------------
                    Distance matrix (angstroms):
                    1          2          3          4          5
     1  C    0.000000
     2  C    1.350065   0.000000
     3  H    1.082701   2.125088   0.000000
     4  H    1.082700   2.125081   1.848594   0.000000
     5  H    2.121341   1.083664   2.474146   3.087242   0.000000
     6  H    2.121339   1.083663   3.087237   2.474151   1.844450
     7  H    2.570353   1.824890   3.134357   3.134003   2.077855
                    6          7
     6  H    0.000000
     7  H    2.077596   0.000000
 Symmetry turned off by external request.
 Stoichiometry    C2H5(2)
 Framework group  C1[X(C2H5)]
 Deg. of freedom    15
 Full point group                 C1      NOp   1
 Rotational constants (GHZ):     80.7583711     23.4760277     22.8242527

 **********************************************************************

            Population analysis using the SCF density.

 **********************************************************************

 Alpha  occ. eigenvalues --  -10.55667 -10.54765  -0.87273  -0.67942  -0.55188
 Alpha  occ. eigenvalues --   -0.49635  -0.42989  -0.40714  -0.26736
 Alpha virt. eigenvalues --    0.02174   0.03754   0.04901   0.05374   0.08111
 Alpha virt. eigenvalues --    0.08646   0.09681   0.11952   0.15133   0.19359
 Alpha virt. eigenvalues --    0.19531   0.23907   0.30120   0.34600   0.40341
 Alpha virt. eigenvalues --    0.42989   0.44641   0.53993   0.55785   0.59195
 Alpha virt. eigenvalues --    0.64726   0.67244   0.69506   0.73630   0.74875
 Alpha virt. eigenvalues --    0.78473   0.92368   1.07503   1.10368   1.15999
 Alpha virt. eigenvalues --    1.32847   1.36550   1.42567   1.45943   1.53764
 Alpha virt. eigenvalues --    1.58085   1.65069   1.65971   1.68684   1.71532
 Alpha virt. eigenvalues --    1.81927   1.92979   2.00757   2.05506   2.10069
 Alpha virt. eigenvalues --    2.17326   2.19961   2.22679   2.34761   2.46466
 Alpha virt. eigenvalues --    2.50175   2.56544   2.59212   2.68001   2.76647
 Alpha virt. eigenvalues --    2.80039   2.84810   3.02172   3.14186   3.46464
 Alpha virt. eigenvalues --    3.69620   3.85276   4.15309  23.83958  24.27031
  Beta  occ. eigenvalues --  -10.55753 -10.54496  -0.86519  -0.67121  -0.54850
  Beta  occ. eigenvalues --   -0.49121  -0.42755  -0.35356
  Beta virt. eigenvalues --   -0.05748   0.02076   0.03419   0.04496   0.04919
  Beta virt. eigenvalues --    0.07742   0.08213   0.09802   0.12069   0.14586
  Beta virt. eigenvalues --    0.19459   0.19682   0.23722   0.30208   0.34402
  Beta virt. eigenvalues --    0.34816   0.42915   0.44748   0.54521   0.55570
  Beta virt. eigenvalues --    0.60232   0.64785   0.66719   0.69419   0.74649
  Beta virt. eigenvalues --    0.75211   0.78226   0.92023   1.08215   1.10284
  Beta virt. eigenvalues --    1.15867   1.30046   1.32852   1.38609   1.46502
  Beta virt. eigenvalues --    1.52147   1.54762   1.64409   1.64784   1.68156
  Beta virt. eigenvalues --    1.70368   1.82092   1.90695   2.00653   2.05759
  Beta virt. eigenvalues --    2.09978   2.17480   2.20402   2.24041   2.36027
  Beta virt. eigenvalues --    2.46551   2.51778   2.57083   2.58568   2.68488
  Beta virt. eigenvalues --    2.76390   2.82299   2.85088   3.01916   3.14566
  Beta virt. eigenvalues --    3.46827   3.69946   3.85657   4.16067  23.84087
  Beta virt. eigenvalues --   24.27323
          Condensed to atoms (all electrons):
              1          2          3          4          5          6
     1  C    5.012289   0.503336   0.398486   0.398479  -0.047680  -0.047684
     2  C    0.503336   5.137339  -0.021780  -0.021773   0.421658   0.421655
     3  H    0.398486  -0.021780   0.496085  -0.025305  -0.006305   0.005028
     4  H    0.398479  -0.021773  -0.025305   0.496089   0.005027  -0.006305
     5  H   -0.047680   0.421658  -0.006305   0.005027   0.486208  -0.020604
     6  H   -0.047684   0.421655   0.005028  -0.006305  -0.020604   0.486227
     7  H   -0.075740   0.118917  -0.001804  -0.001803  -0.035141  -0.035176
              7
     1  C   -0.075740
     2  C    0.118917
     3  H   -0.001804
     4  H   -0.001803
     5  H   -0.035141
     6  H   -0.035176
     7  H    1.034791
 Mulliken atomic charges:
              1
     1  C   -0.141487
     2  C   -0.559350
     3  H    0.155595
     4  H    0.155590
     5  H    0.196837
     6  H    0.196860
     7  H   -0.004045
 Sum of Mulliken atomic charges =  -0.00000
 Mulliken charges with hydrogens summed into heavy atoms:
              1
     1  C    0.169698
     2  C   -0.169698
 Sum of Mulliken charges with hydrogens summed into heavy atoms =  -0.00000
          Atomic-Atomic Spin Densities.
              1          2          3          4          5          6
     1  C    0.552712   0.012869  -0.003991  -0.003991  -0.002609  -0.002616
     2  C    0.012869  -0.256416   0.002380   0.002383   0.009806   0.009817
     3  H   -0.003991   0.002380  -0.022941   0.000970   0.000421   0.000151
     4  H   -0.003991   0.002383   0.000970  -0.022941   0.000150   0.000420
     5  H   -0.002609   0.009806   0.000421   0.000150   0.030846   0.004657
     6  H   -0.002616   0.009817   0.000151   0.000420   0.004657   0.030887
     7  H   -0.081284  -0.009220  -0.001450  -0.001447  -0.030339  -0.030380
              7
     1  C   -0.081284
     2  C   -0.009220
     3  H   -0.001450
     4  H   -0.001447
     5  H   -0.030339
     6  H   -0.030380
     7  H    0.934463
 Mulliken atomic spin densities:
              1
     1  C    0.471089
     2  C   -0.228383
     3  H   -0.024460
     4  H   -0.024456
     5  H    0.012931
     6  H    0.012936
     7  H    0.780342
 Sum of Mulliken atomic spin densities =   1.00000
 APT atomic charges:
              1
     1  C   -0.114318
     2  C   -0.043820
     3  H    0.050565
     4  H    0.050537
     5  H    0.051393
     6  H    0.051453
     7  H   -0.045810
 Sum of APT charges=   0.00000
 APT Atomic charges with hydrogens summed into heavy atoms:
              1
     1  C   -0.013216
     2  C    0.013216
     3  H    0.000000
     4  H    0.000000
     5  H    0.000000
     6  H    0.000000
     7  H    0.000000
 Sum of APT charges=   0.00000
 Electronic spatial extent (au):  <R**2>=            103.1737
 Charge=             -0.0000 electrons
 Dipole moment (field-independent basis, Debye):
    X=             -0.0093    Y=             -0.5689    Z=             -0.2540  Tot=              0.6231
 Quadrupole moment (field-independent basis, Debye-Ang):
   XX=            -13.6227   YY=            -18.1678   ZZ=            -14.1265
   XY=             -0.0750   XZ=             -0.0173   YZ=             -1.0519
 Traceless Quadrupole moment (field-independent basis, Debye-Ang):
   XX=              1.6830   YY=             -2.8621   ZZ=              1.1791
   XY=             -0.0750   XZ=             -0.0173   YZ=             -1.0519
 Octapole moment (field-independent basis, Debye-Ang**2):
  XXX=             -0.0977  YYY=             -6.6544  ZZZ=             -4.1580  XYY=             -0.0432
  XXY=             -1.9985  XXZ=             -1.1765  XZZ=             -0.0486  YZZ=             -2.9760
  YYZ=             -2.3596  XYZ=             -0.0188
 Hexadecapole moment (field-independent basis, Debye-Ang**3):
 XXXX=            -28.7376 YYYY=            -52.9831 ZZZZ=            -85.0513 XXXY=             -0.2099
 XXXZ=             -0.1687 YYYX=             -0.1835 YYYZ=            -12.1005 ZZZX=             -0.1784
 ZZZY=            -10.9656 XXYY=            -13.8779 XXZZ=            -15.8100 YYZZ=            -25.4177
 XXYZ=             -3.4521 YYXZ=             -0.0846 ZZXY=             -0.1575
 N-N= 3.698322257800D+01 E-N=-3.819644501267D+02  KE= 1.176149411426D+02
  Exact polarizability:  22.557   0.170  32.858   0.160   9.816  40.225
 Approx polarizability:  24.367   0.162  34.392   0.160   9.832  44.559
                          Isotropic Fermi Contact Couplings
        Atom                 a.u.       MegaHertz       Gauss      10(-4) cm-1
     1  C(13)              0.06217      69.89635      24.94075      23.31491
     2  C(13)              0.00204       2.29643       0.81942       0.76601
     3  H(1)              -0.00679     -30.34974     -10.82954     -10.12358
     4  H(1)              -0.00679     -30.34732     -10.82868     -10.12278
     5  H(1)               0.00837      37.43112      13.35635      12.48568
     6  H(1)               0.00838      37.47826      13.37317      12.50140
     7  H(1)               0.24195    1081.49937     385.90586     360.74936
 --------------------------------------------------------
       Center         ----  Spin Dipole Couplings  ----
                      3XX-RR        3YY-RR        3ZZ-RR
 --------------------------------------------------------
     1   Atom       -0.237197      0.480964     -0.243767
     2   Atom        0.066866     -0.167623      0.100757
     3   Atom        0.016103     -0.002642     -0.013461
     4   Atom        0.016179     -0.002721     -0.013457
     5   Atom       -0.011005      0.009267      0.001738
     6   Atom       -0.010443      0.008708      0.001735
     7   Atom        0.007038     -0.013540      0.006502
 --------------------------------------------------------
                        XY            XZ            YZ
 --------------------------------------------------------
     1   Atom        0.011929      0.000116      0.007094
     2   Atom       -0.003869     -0.000153     -0.008723
     3   Atom       -0.001501     -0.029937      0.003822
     4   Atom        0.000873      0.030045      0.002828
     5   Atom       -0.008283     -0.004464      0.000287
     6   Atom        0.008930      0.004467      0.000140
     7   Atom       -0.000336     -0.000080     -0.004945
 --------------------------------------------------------


 ---------------------------------------------------------------------------------
              Anisotropic Spin Dipole Couplings in Principal Axis System
 ---------------------------------------------------------------------------------

       Atom             a.u.   MegaHertz   Gauss  10(-4) cm-1        Axes

              Baa    -0.2438   -32.720   -11.675   -10.914  0.0001 -0.0098  1.0000
     1 C(13)  Bbb    -0.2374   -31.856   -11.367   -10.626  0.9999 -0.0166 -0.0002
              Bcc     0.4812    64.577    23.043    21.540  0.0166  0.9998  0.0098
 
              Baa    -0.1680   -22.540    -8.043    -7.519  0.0165  0.9993  0.0324
     2 C(13)  Bbb     0.0669     8.981     3.205     2.996  0.9999 -0.0165  0.0003
              Bcc     0.1010    13.559     4.838     4.523 -0.0008 -0.0324  0.9995
 
              Baa    -0.0323   -17.218    -6.144    -5.743  0.5226 -0.0830  0.8486
     3 H(1)   Bbb    -0.0027    -1.455    -0.519    -0.485  0.1180  0.9927  0.0244
              Bcc     0.0350    18.673     6.663     6.229  0.8444 -0.0873 -0.5285
 
              Baa    -0.0323   -17.217    -6.143    -5.743 -0.5251 -0.0657  0.8485
     4 H(1)   Bbb    -0.0027    -1.455    -0.519    -0.485 -0.0850  0.9961  0.0245
              Bcc     0.0350    18.671     6.662     6.228  0.8468  0.0592  0.5286
 
              Baa    -0.0150    -7.990    -2.851    -2.665  0.9194  0.3113  0.2402
     5 H(1)   Bbb     0.0024     1.305     0.466     0.435 -0.1672 -0.2433  0.9554
              Bcc     0.0125     6.685     2.385     2.230 -0.3559  0.9186  0.1717
 
              Baa    -0.0150    -7.991    -2.851    -2.665  0.9088 -0.3412 -0.2401
     6 H(1)   Bbb     0.0024     1.303     0.465     0.435  0.1592 -0.2483  0.9555
              Bcc     0.0125     6.687     2.386     2.231  0.3857  0.9066  0.1714
 
              Baa    -0.0147    -7.843    -2.798    -2.616  0.0159  0.9737  0.2272
     7 H(1)   Bbb     0.0070     3.758     1.341     1.253  0.9999 -0.0160 -0.0012
              Bcc     0.0077     4.085     1.458     1.363 -0.0025 -0.2271  0.9739
 

 ---------------------------------------------------------------------------------

 FrcOut:
 IF    =   255 IFX   =   276 IFXYZ =   297
 IFFX  =   318 IFFFX =   318 IFLen =    21
 IFFLen=     0 IFFFLn=     0 IEDerv=   318
 LEDerv=  1061 IFroze=  1383 ICStrt= 12569
 DipoleDeriv   = 9.08323260D-02-8.11607116D-03-7.50234982D-04
                -7.88270881D-03-3.93185642D-01-4.23976268D-02
                -1.04091654D-04-4.10665524D-03-4.06020049D-02
                 2.33717886D-02-2.20641535D-03 5.02200371D-04
                -2.04119714D-03-1.03969437D-01 2.41384388D-02
                -1.20588136D-03-7.95189857D-02-5.08623812D-02
                -3.22173798D-02-1.87319977D-03 6.69095151D-02
                 8.47541924D-04 1.63595418D-01 4.83213536D-03
                 3.66560145D-02-1.57470868D-03 2.03183003D-02
                -3.19165110D-02 8.45221771D-03-6.66624979D-02
                 5.41027574D-03 1.63207275D-01 6.59180235D-03
                -3.66514126D-02-2.62279961D-04 2.03214801D-02
                -9.38064182D-03 2.80409909D-02-4.15830401D-02
                 4.03521540D-02 1.19035103D-01 3.21801516D-02
                -2.24562636D-02 2.55576008D-02 4.45242638D-02
                -1.13576928D-02-2.36705698D-02 4.24888193D-02
                -3.60425050D-02 1.21073674D-01 3.06115446D-02
                 2.31878177D-02 2.47643597D-02 4.46424446D-02
                -2.93318891D-02-6.26952584D-04-9.04761815D-04
                -6.43560647D-04-6.97563901D-02-5.59564460D-02
                 5.73816978D-04 3.51406691D-02-3.83421027D-02
 -------------------------------------------------------------------
 Center     Atomic                   Forces (Hartrees/Bohr)
 Number     Number              X              Y              Z
 -------------------------------------------------------------------
      1        6          -0.000015946   -0.000963910   -0.003805872
      2        6           0.000213370    0.013206016    0.006894022
      3        1           0.000016118    0.000015509   -0.000154025
      4        1          -0.000015344    0.000010147   -0.000154608
      5        1          -0.000075138   -0.001468993    0.000108946
      6        1           0.000025578   -0.001473952    0.000107694
      7        1          -0.000148638   -0.009324818   -0.002996158
 -------------------------------------------------------------------
 Cartesian Forces:  Max     0.013206016 RMS     0.004010379
 Final forces over variables, Energy=-7.90585966D+01:
  0.00000000D+00 0.00000000D+00 0.00000000D+00 0.00000000D+00
  0.00000000D+00 0.00000000D+00 0.00000000D+00 0.00000000D+00
  0.00000000D+00 0.00000000D+00 0.00000000D+00 0.00000000D+00
  0.00000000D+00 0.00000000D+00 0.00000000D+00 0.00000000D+00
  0.00000000D+00 0.00000000D+00 0.00000000D+00 0.00000000D+00
  0.00000000D+00
 B after Tr=     0.002041    0.127890    1.348735
         Rot=    0.999998    0.002052   -0.000027    0.000017 Ang=   0.24 deg.
 Final structure in terms of initial Z-matrix:
 C
 C,1,RCC1
 H,1,RCH1,2,AHCC1
 H,1,RCH2,2,AHCC2,3,B1,0
 H,2,RCH3,1,AHCC3,3,B2,0
 H,2,RCH4,1,AHCC4,5,B3,0
 H,2,RTS,1,AABS1,3,BABS1,0
      Variables:
 RCC1=1.35006501
 RCH1=1.08270133
 RCH2=1.08270029
 RCH3=1.08366388
 RCH4=1.08366348
 AHCC1=121.35279655
 AHCC2=121.35216152
 AHCC3=120.91016008
 AHCC4=120.91002479
 B1=-177.03000973
 B2=-8.77274957
 B3=-165.40505764
 AABS1=107.16023905
 BABS1=88.53434168
 RTS=1.82488955

 This type of calculation cannot be archived.


 A DANDELION FROM A LOVER MEANS MORE THAN AN ORCHID FROM A FRIEND.
 Job cpu time:  0 days  1 hours 56 minutes 59.9 seconds.
 File lengths (MBytes):  RWF=     13 Int=      0 D2E=      0 Chk=      3 Scr=      1
 Normal termination of Gaussian 09 at Thu Apr  6 04:55:19 2017.
