
 Working directory              : /scratch/cc//molpro.VzZz9UDeqD/
 Global scratch directory       : /scratch/cc//molpro.VzZz9UDeqD/
 Wavefunction directory         : /home/chimica2/cavallotti/wfu/
 Main file repository           : /scratch/cc//molpro.VzZz9UDeqD/

 id        : polimi

 Nodes     nprocs
 node-6-10    1
 Distribution of processes:   nprocs(total)=    2   nprocs(compute)=    1   nprocs(helper)=    1
 GA implementation: MPI file
 GA implementation (serial work in mppx): MPI file

 Using customized tuning parameters: mindgm=1; mindgv=20; mindgc=4; mindgr=1; noblas=0; minvec=7
 default implementation of scratch files=df  


 Variables initialized (1009), CPU time= 0.00 sec
  memory,         400 ,m
 
 symmetry, nosym; orient, noorient
 angstrom
 geomtyp=xyz
 geometry={
 5
 rotational dynamics
 C, -0.00714674, -0.164895, -0.186839
 H, 0.918244, -0.703357, -0.0594569
 H, -0.12829, 0.508324, -1.02028
 H, -0.81226, -0.301857, 0.517117
 H, 0.107401, 2.46027, 2.78728
 }
 
  basis=cc-pvdz
  {multi;closed, 4;occ, 6;wf, 10,1,0,;state,1;maxiter,40}
  if (iterations.ge.0) then
     {rs2,shift=0.2;orbital,IGNORE_ERROR;state,1}
     molpro_energy = energy +   40.192865169999997
  else
     molpro_energy = 10.0
  endif
 Commands initialized (810), CPU time= 0.01 sec, 661 directives.
 Default parameters read. Elapsed time= 0.20 sec

 Checking input...
 Passed
1


                                         ***  PROGRAM SYSTEM MOLPRO  ***
                                       Copyright, TTI GmbH Stuttgart, 2015
                                    Version 2021.2 linked Jun  2 2021 16:00:59


 **********************************************************************************************************************************
 LABEL *                                                                                 
  64 bit serial version                                                                  DATE: 03-Jun-23          TIME: 09:16:08  
 **********************************************************************************************************************************

 SHA1:             1987c3f1b0c3ae76932bc24993909f2d7ae6b1f1
 **********************************************************************************************************************************

 Memory per process:       400 MW
 Total memory per node:    400 MW

 GA preallocation disabled
 GA check disabled

 Variable memory set to 400.0 MW

 SETTING GEOMTYP        =    XYZ
 ZSYMEL=NOSYM
 ZUNIT=ANG

 SETTING BASIS          =    CC-PVDZ


 Recomputing integrals since basis changed


 Using spherical harmonics

 Library entry C      S cc-pVDZ              selected for orbital group  1
 Library entry C      P cc-pVDZ              selected for orbital group  1
 Library entry C      D cc-pVDZ              selected for orbital group  1
 Library entry H      S cc-pVDZ              selected for orbital group  2
 Library entry H      P cc-pVDZ              selected for orbital group  2


 PROGRAM * SEWARD (Integral evaluation for generally contracted gaussian basis sets)     Author: Roland Lindh, 1990

 Geometry written to block  1 of record 700


 Point group  C1  



 ATOMIC COORDINATES

 NR  ATOM    CHARGE       X              Y              Z

   1  C       6.00   -0.013505381   -0.311606389   -0.353074539
   2  H       1.00    1.735229676   -1.329152098   -0.112357257
   3  H       1.00   -0.242432965    0.960593143   -1.928049770
   4  H       1.00   -1.534948942   -0.570427059    0.977209504
   5  H       1.00    0.202958476    4.649236493    5.267195833

 Bond lengths in Bohr (Angstrom)

 1-2  2.037502976  1-3  2.037509869  1-4  2.037506880
     ( 1.078200142)     ( 1.078203790)     ( 1.078202208)

 Bond angles

  2-1-3  119.97231270   2-1-4  120.02078832   3-1-4  120.00661975

 NUCLEAR CHARGE:                   10
 NUMBER OF PRIMITIVE AOS:          55
 NUMBER OF SYMMETRY AOS:           54
 NUMBER OF CONTRACTIONS:           34   (   34A   )
 NUMBER OF INNER CORE ORBITALS:     0   (    0A   )
 NUMBER OF OUTER CORE ORBITALS:     1   (    1A   )
 NUMBER OF VALENCE ORBITALS:        8   (    8A   )


 NUCLEAR REPULSION ENERGY   10.87342611

 Eigenvalues of metric

         1 0.150E-01 0.352E-01 0.352E-01 0.421E-01 0.541E-01 0.542E-01 0.944E-01 0.122E+00


 Contracted 2-electron integrals neglected if value below      1.0D-11
 AO integral compression algorithm  1   Integral accuracy      1.0D-11

     1.049 MB (compressed) written to integral file ( 64.5%)


 NUMBER OF SORTED TWO-ELECTRON INTEGRALS:     177310.     BUFFER LENGTH:  32768
 NUMBER OF SEGMENTS:   1  SEGMENT LENGTH:     177310      RECORD LENGTH: 524288

 Memory used in sort:       0.73 MW

 SORT1 READ      215213. AND WROTE      163504. INTEGRALS IN      1 RECORDS. CPU TIME:     0.01 SEC, REAL TIME:     0.01 SEC
 SORT2 READ      163504. AND WROTE      177310. INTEGRALS IN      4 RECORDS. CPU TIME:     0.02 SEC, REAL TIME:     0.04 SEC

 FILE SIZES:   FILE 1:    31.1 MBYTE,  FILE 4:     4.2 MBYTE,   TOTAL:     35.3 MBYTE

 OPERATOR DM      FOR CENTER  0  COORDINATES:    0.000000    0.000000    0.000000


 **********************************************************************************************************************************
 DATASETS  * FILE   NREC   LENGTH (MB)   RECORD NAMES
              1      19       29.38       500      610      700      900      950      970     1000      129      960     1100   
                                          VAR    BASINP    GEOM    SYMINP    ZMAT    AOBASIS   BASIS     P2S    ABASIS      S 
                                         1400     1410     1200     1210     1080     1600     1650     1300     1700   
                                           T        V       H0       H01     AOSYM     SMH    MOLCAS    ERIS     OPER   

 PROGRAMS   *        TOTAL       INT
 CPU TIMES  *         0.40      0.24
 REAL TIME  *         1.08 SEC
 DISK USED  *        34.01 MB
 **********************************************************************************************************************************

 PROGRAM * MULTI (Direct Multiconfiguration SCF)       Authors: P.J. Knowles, H.-J. Werner (1984)
                                                                D.A. Kreplin, P.J. Knowles, H.-J. Werner (2019)

 Number of closed-shell orbitals:   4 (   4 )
 Number of active  orbitals:        2 (   2 )
 Number of external orbitals:      28 (  28 )

 State symmetry 1

 Number of active electrons:   2    Spin symmetry=Singlet   Space symmetry=1
 Number of states:             1
 Number of CSFs:               3   (4 determinants, 4 intermediate states)

 Orbital guess generated from atomic densities. Full valence occupancy:    9

 Wavefunction dump at record             2140.2

 Convergence thresholds  0.10E-04 (gradient)  0.10E-05 (energy)
 
 Number of orbital rotations:  176  ( 8 closed/active, 112 closed/virtual, 0 active/active, 56 active/virtual )
 Total number of variables:    180
 
  Second-order MCSCF: L-BFGS accelerated
 
 ITER  MIC  NCI  NEG     ENERGY(VAR)    ENERGY(PROJ) ENERGY CHANGE       GRAD(0)  GRAD(ORB)   GRAD(CI)      STEP      TIME
   1    5    4    0    -40.04381171     -40.05919888   -0.01538717    0.14521317 0.00001493 0.00000000  0.13E+00      0.11
   2    7    6    0    -40.05917077     -40.05917230   -0.00000154    0.00180160 0.00000003 0.00000000  0.98E-03      0.25
   3    3    3    0    -40.05917230     -40.05917230   -0.00000000    0.00000053 0.00000000 0.00000000  0.28E-06      0.33

 CONVERGENCE REACHED!  Final gradient:    0.00000000 ( 0.50E-09)
                       Final energy:    -40.05917230
 
 First order charge density matrix for state 1.1 saved on record 2140.2 (density set 1)
 
 Results for state 1.1
 =====================
 !MCSCF STATE 1.1 Energy                       -40.059172304349
 Nuclear energy                                 10.87342611
 Kinetic energy                                 39.99353847
 One electron energy                           -74.45657626
 Two electron energy                            23.52397784
 Virial ratio                                    2.00164111
 
 !MCSCF STATE 1.1 Dipole moment                 -0.00087762    -0.00667010    -0.00705025
 Dipole moment /Debye                           -0.00223068    -0.01695371    -0.01791994
 
 No non-zero expectation values
 
 
 Natural orbital dump at molpro section 2140.2 (Orbital set 2)


 **********************************************************************************************************************************
 DATASETS  * FILE   NREC   LENGTH (MB)   RECORD NAMES
              1      20       29.68       500      610      700      900      950      970     1000      129      960     1100   
                                          VAR    BASINP    GEOM    SYMINP    ZMAT    AOBASIS   BASIS     P2S    ABASIS      S 
                                         1400     1410     1200     1210     1080     1600     1650     1300     1700     1380   
                                           T        V       H0       H01     AOSYM     SMH    MOLCAS    ERIS     OPER     JKOP   

              2       4        2.72       700     1000      520     2140   
                                         GEOM     BASIS   MCVARS    MCSCF   

 PROGRAMS   *        TOTAL     MULTI       INT
 CPU TIMES  *         0.63      0.23      0.24
 REAL TIME  *         1.53 SEC
 DISK USED  *        34.01 MB
 **********************************************************************************************************************************


 PROGRAM * RS2 (Multireference RS Perturbation Theory)     Authors: H.-J. Werner (1993), P. Celani (1998)


 Level shift= 0.20

 Convergence thresholds:  THRVAR = 1.00D-08  THRDEN = 1.00D-06

 Number of optimized states: 1  Roots:    1
 Number of reference states: 1  Roots:    1

 Reference symmetry:                   1   Singlet 
 Number of electrons:                 10
 Maximum number of shells:             4
 Maximum number of spin couplings:     5

 Reference space:        3 conf        3 CSFs
 N elec internal:       15 conf       15 CSFs
 N-1 el internal:       23 conf       32 CSFs
 N-2 el internal:       25 conf       52 CSFs

 Number of electrons in valence space:                      8
 Maximum number of open shell orbitals in reference space:  2
 Maximum number of open shell orbitals in internal spaces:  6


 Number of core orbitals:           1 (   1 )
 Number of closed-shell orbitals:   3 (   3 )
 Number of active  orbitals:        2 (   2 )
 Number of external orbitals:      28 (  28 )

 Molecular orbitals read from record     2140.2  Type=MCSCF/NATURAL (state 1.1)

 Integral transformation finished. Total CPU:   0.00 sec, npass=  1  Memory used:   0.11 MW


 Number of p-space configurations:   3

 Reference wavefunction optimized for reference space (refopt=1)

 State     Reference Energy 
     1       -40.05917230

 Number of blocks in overlap matrix:     2   Smallest eigenvalue:  0.10D+01
 Number of N-2 electron functions:      22
 Number of N-1 electron functions:      32

 Number of internal configurations:                   15
 Number of singly external configurations:           896
 Number of doubly external configurations:          8680
 Total number of contracted configurations:         9591
 Total number of uncontracted configurations:      21351

 Weight factors for SA-density in H0:    1.000000

 FIMAX=  0.40D-01  FXMAX=  0.11D-12  DIAG=  F  T  NOREF=1  NOINT=0  IHPPD=2

 Nuclear energy:                      10.87342611
 Core energy:                        -35.57001880
 Zeroth-order valence energy:         -4.37010269
 Zeroth-order total energy:          -29.06669538
 First-order energy:                 -10.99247693

 Using uncontracted singles

 Diagonal Coupling coefficients finished.               Storage:     883 words, CPU-Time:      0.00 seconds.
 Energy denominators for pairs finished in 0 passes.    Storage:    2295 words, CPU-time:      0.00 seconds.

 A level shift of 0.20 is applied.

  ITER. STATE  ROOT     SQ.NORM     CORR.ENERGY   TOTAL ENERGY   ENERGY CHANGE       DEN1      VAR(S)    VAR(P)      TIME
    1     1     1     1.00522160    -0.00104432   -40.06021662    -0.00104432    -0.12594409  0.52D-02  0.36D-01     0.02
    2     1     1     1.04132549    -0.13400596   -40.19317827    -0.13296164     0.00011957  0.17D-04  0.72D-05     0.02
    3     1     1     1.04130652    -0.13404357   -40.19321587    -0.00003760    -0.00002072  0.53D-07  0.52D-07     0.02
    4     1     1     1.04132565    -0.13404757   -40.19321988    -0.00000401     0.00000010  0.81D-09  0.17D-09     0.02
    5     1     1     1.04132575    -0.13404759   -40.19321990    -0.00000002    -0.00000008  0.66D-11  0.34D-11     0.02

 Energies without level shift correction:

    5     1     1     1.04132575    -0.12578244   -40.18495475

 Energy contributions for state 1.1:
 ===================================

            Energy contr.      SQ.Norm of FOWF
 Space I     -0.00000767          0.00000522
 Space S     -0.01133223          0.00514535
 Space P     -0.11444254          0.03617518


 =====================================
 Analysis of CPU times by interactions
 =====================================

       I      S      P

 I  50.0%
 S   0.0%   0.0%
 P   0.0%   0.0%   0.0%

 Initialization:  50.0%
 Other:            0.0%

 Total CPU:        0.0 seconds
 =====================================



 gnormi=  1.00000522  gnorms=  0.00514535  gnormp=  0.03617518  gnorm=  1.04132575
 ecorri= -0.00000767  ecorrs= -0.01133223  ecorrp= -0.11444254  ecorr= -0.13404759

 Reference coefficients greater than 0.0500000
 =============================================
 22220           0.7316572
 22202          -0.6816727


 RESULTS FOR STATE 1.1
 =====================

 Coefficient of reference function:   C(0) = 1.00000000 (fixed)   1.00000000 (relaxed)

 Energy contributions of configuration classes

 CLASS          SQ.NORM        ECORR1        ECORR2
 +++++++++++++++++++++++++++++++++++++++++++++++++++
 Internals    0.00000522   -0.00000767    0.13403125
 Singles      0.00514535   -0.01133223   -0.02415375
 Pairs        0.03617518   -0.11444254   -0.24392510
 Total        1.04132575   -0.12578244   -0.13404759
 +++++++++++++++++++++++++++++++++++++++++++++++++++


 Reference energy                     -40.05917230
 Nuclear energy                        10.87342611
 Kinetic energy                        40.08449784
 One electron energy                  -74.39191070
 Two electron energy                   23.32526468
 Virial quotient                       -1.00271232
 Correlation energy                    -0.13404759
 !RSPT2 STATE 1.1 Energy              -40.193219898912

 Properties without orbital relaxation:

 !RSPT2 STATE 1.1 Dipole moment        -0.00092044    -0.00694641    -0.00733711
 Dipole moment /Debye                  -0.00233953    -0.01765603    -0.01864907


 **********************************************************************************************************************************
 DATASETS  * FILE   NREC   LENGTH (MB)   RECORD NAMES
              1      20       29.68       500      610      700      900      950      970     1000      129      960     1100   
                                          VAR    BASINP    GEOM    SYMINP    ZMAT    AOBASIS   BASIS     P2S    ABASIS      S 
                                         1400     1410     1200     1210     1080     1600     1650     1300     1700     1380   
                                           T        V       H0       H01     AOSYM     SMH    MOLCAS    ERIS     OPER     JKOP   

              2       4        2.72       700     1000      520     2140   
                                         GEOM     BASIS   MCVARS    MCSCF   

 PROGRAMS   *        TOTAL       RS2     MULTI       INT
 CPU TIMES  *         0.70      0.07      0.23      0.24
 REAL TIME  *         1.74 SEC
 DISK USED  *        34.01 MB
 **********************************************************************************************************************************
 SETTING MOLPRO_ENERGY  =        -0.00035473  AU                              

 RS2/cc-pVDZ energy=    -40.193219898912

             RS2           MULTI
    -40.19321990    -40.05917230
 **********************************************************************************************************************************
 Molpro calculation terminated
