[Molden Format]
[Molpro variables]
_NUMVAR=  1056.000000000000    
_AVOGAD= 0.6022140760000000E+24
_BOLTZ= 0.1380649000000000E-22
_CLIGHTSI=  299792458.0000000    
_JOULE= 0.4359744722207100E-17
_JPCAL=  4.184000000000000    
_PLANCK= 0.6626070150000000E-33
_BOHR= 0.5291772109030000E-10
_ECHARG= 0.1602176634000000E-18
_ENULL= 0.8854187812800001E-11
_MU= 0.1660539066600000E-26
_EMASS= 0.9109383701500001E-30
_AMU2AU=  1822.888486217313    
_CLIGHT=  29979245800.00000    
_EV= 0.3674932217565494E-01
_KJOULE= 0.3808798847133432E-03
_KJOULE/MOL= 0.3808798847133432E-03
_CM= 0.4556335252912009E-05
_CM-1= 0.4556335252912009E-05
_DEB2SI= 0.3335640951981520E-29
_KCAL= 0.1593601437640628E-02
_KCAL/MOL= 0.1593601437640628E-02
_KELVIN= 0.3166811563455608E-05
_HERTZ= 0.1519829846057038E-15
_HZ= 0.1519829846057038E-15
_TOA= 0.5291772109030000    
_TOANG= 0.5291772109030000    
_TORAD= 0.1745329251994330E-01
_TOCM=  219474.6313631965    
_TODEBYE=  2.541746473194078    
_TOE= 0.4803204712570263E-09
_TOEV=  27.21138624598803    
_TOHERTZ=  6579683920501656.    
_TOHZ=  6579683920501656.    
_TOK=  315775.0248040668    
_TOKCAL=  627.5094740630558    
_TOKELVIN=  315775.0248040668    
_TOKJ=  2625.499639479825    
_TOKJOULE=  2625.499639479825    
_TOKG= 0.1660539066600000E-26
_ANG=  1.889726124625770    
_ANGSTROM=  1.889726124625770    
_RPAREF=  0.000000000000000    
_RPADISS=  0.000000000000000    
_IGNORE_UNDEF=  2.000000000000000    
_STRICTCHECK=  0.000000000000000    
!SEWARD=  0.000000000000000    
!MULTI=  0.000000000000000    
!DFMULTI=  0.000000000000000    
_SEW_ONEEL=  0.000000000000000    
_CPPDONE=FALSE
_DKROLL_DONE=  0.000000000000000    
_FNUC_DONE=  0.000000000000000    
_FOCKDONE=  0.000000000000000    
_GRADONE=FALSE
_HESSDONE=FALSE
_INTDONE=TRUE
_SCFDONE=FALSE
_MODUL_BLOCK=FALSE
_MODUL_CUDA=FALSE
_MODUL_SLATER=FALSE
_MODUL_MRCC=TRUE
_MODUL_NBO6=FALSE
_MODUL_NECI=FALSE
_MODUL_AIMS=TRUE
_MODUL_GECCO=FALSE
_ISWINDOWS=FALSE
_MRCC_EXEC=/software/cinetica/mrcc/bin/dmrcc
_FITC_AO_SAVED=FALSE
_FITC_MO_SAVED=FALSE
_SHARED_FS=TRUE
_LSTYP=SEWARD
_INTYP=INTS
_GEOMTYP=ZMAT
_GRADTYP=ALASKA
_DIRECT=FALSE
_DKHO= -1.000000000000000    
_FNUC=  0.000000000000000    
_SYNCM=  0.000000000000000    
_BASIS=CC-PVDZ
_ZORIENT=  1.000000000000000    
!ZORIENT=  0.000000000000000    
_NELEC=  18.00000000000000    
!SPIN=  0.000000000000000    
_QSDSTEP=  0.000000000000000    
_QSDIRC=  0.000000000000000    
_PROGRAM=RS2
_CPUSTEP= 0.1300000000000001    
_SYSSTEP= 0.5000000000000004E-01
_WALLSTEP= 0.4800000000000000    
!DFMP2=  0.000000000000000    
!DFHFENERG=  0.000000000000000    
!SCSGRD=  0.000000000000000    
_CPUTOT=  1.000000000000000    
_DMX= 0.2067915401605833E-03
_DMY= 0.7880463597624210E-03
_DMZ=-0.9183958677628622E-04
_EMP2= -79.40815122839027    
_ENERGR= -79.13606481510610    
_ENERGU= -79.39124171318377    
_ENERGY= -79.40815122839027    
_ENERGY_METHOD=RS2
_ENERGY_BASIS=cc-pVDZ
_GEOMETRY_METHOD=
_GEOMETRY_BASIS=
_ENERGY_AVRG= -79.13606481510612    
_ENUC=  33.71330671644049    
_GRADMETHOD=  9.000000000000000    
_NMRMETHOD=  0.000000000000000    
_NMRMAGNET=  0.000000000000000    
!GRID_FREEZE= -1.000000000000000    
!NEESE_INDEX=  0.000000000000000    
_ITERATIONS=  4.000000000000000    
_LASTNELEC=  2.000000000000000    
_LASTSPIN=  0.000000000000000    
_LASTSYM=  1.000000000000000    
_MPP_PROG=  1.000000000000000    
_MSNSTATES=  0.000000000000000    
_RS2PHASE=  0.000000000000000    
_IPROC_MPP=  0.000000000000000    
_IPROC_MPPX=  0.000000000000000    
_NPROC_MPP=  4.000000000000000    
_NPROC_MPPX=  4.000000000000000    
_NPROC_SMP=  1.000000000000000    
_NUMSTEP=  0.000000000000000    
_ORBITAL=  2140.200000000000    
_PI=  3.141592653589793    
!MCACT=  2.000000000000000    
!MCCLOSED=  8.000000000000000    
!MCFREEZE=  0.000000000000000    
!MCMS2=  0.000000000000000    
!MCNEL=  2.000000000000000    
!MCNSTSYM=  1.000000000000000    
!MCSTATE=  1.000000000000000    
!MCSYM=  1.000000000000000    
!MCWEIGHT=  1.000000000000000    
_SEIG_MIN= 0.1253981577887573E-01
_SEWPROP=TRUE
_STATUS=  1.000000000000000    
_SYSTOT= 0.4300000000000000    
_VERSION=  2022002.000000000    
_WALLTOT=  2.460000000000000    
_DATE=27-May-23
_LASTORB=MCSCF
_OUTPUT=/home/chimica2/cavallotti/qm/barrierless/vrc_autom/folders/ch3+ch3/dist_2.8/molpro.out
_PGROUP=C1
_TIME=09:28:54
_LIBMOL=/software/cinetica/molpro_2022.2/lib/
_VIGRDC=  0.000000000000000    
!VIBCNT=  0.000000000000000    
!RGHFCNT=  0.000000000000000    
!SURFREC=  0.000000000000000    
!XSURFREC=  0.000000000000000    
!XPOLYREC=  0.000000000000000    
!ROTREC=  0.000000000000000    
!POLYREC=  0.000000000000000    
!DIPREC=  0.000000000000000    
!DIP4DREC=  0.000000000000000    
!DIPROT=  0.000000000000000    
!DIP4DROT=  0.000000000000000    
!PTREC=  0.000000000000000    
!PT4DREC=  0.000000000000000    
!VSCFREC=  0.000000000000000    
!VCIREC=  0.000000000000000    
!PVCIREC=  0.000000000000000    
!VMP2REC=  0.000000000000000    
!VMCSCFREC=  0.000000000000000    
!VMRCIREC=  0.000000000000000    
!VIBSTATEREC=  0.000000000000000    
!VIBSTATECNT=  0.000000000000000    
!VIBINFO=  0.000000000000000    
!GAREC=  0.000000000000000    
!MCORB=  21402.00000000000    
!DEFCORE=  2.000000000000000    
!SCORE=  0.000000000000000    
!NEWMOL= -1.000000000000000    
!NEWSYM= -1.000000000000000    
_SLFILES=slscratch
_NGSSTO=  9.000000000000000    
_SIN=SIN
_COS=COS
_TAN=TAN
_ACOS=ACOS
_ASIN=ASIN
_ATAN=ATAN
_COSH=COSH
_SINH=SINH
_TANH=TANH
_ABS=ABS
_MOD=MOD
_ERF=ERF
_REFC=REFC
_ERFC=ERFC
_HYPOT=HYPOT
_J0=J0
_J1=J1
_JN=JN
_GAMMA=GAMMA
_LGAMMA=LGAMMA
_Y0=Y0
_Y1=Y1
_YN=YN
_EXP=EXP
_LOG=LOG
_LOG10=LOG10
_SQRT=SQRT
_INT=INT
_NINT=NINT
_MAX=MAX
_MIN=MIN
_COSMO=  0.000000000000000    
_COSMOIT=  0.000000000000000    
_COSMOES=  0.000000000000000    
_COSMOEDS=  0.000000000000000    
_COSMOEC=  0.000000000000000    
_COSMOEDCORR=  0.000000000000000    
_FEPSI=  1.000000000000000    
_SL_IsMM=  0.000000000000000    
_SL_NSYM=  1.000000000000000    
_SL_System_BitSw=  0.000000000000000    
_SL_Unique_atoms=  0.000000000000000    
_SL_GRAD=  0.000000000000000    
_SL_MAXUPD_Hess=  5.000000000000000    
_SL_N_PRINT_COD=  5.000000000000000    
_SL_PRINT_CODES=  0.000000000000000    
_SL_BasType=  0.000000000000000    
_SL_Energy_Pred=  0.000000000000000    
_SL_New_Coords=  0.000000000000000    
_SL_Total_Nuclea=  0.000000000000000    
_SL_Highest_Mltp=  0.000000000000000    
_SL_Ref_Geom=  0.000000000000000    
_SL_Symmetry_ope=  1.000000000000000    
_SL_agrad=  0.000000000000000    
_SL_GrdMax=  0.000000000000000    
_SL_GrdNorm=  0.000000000000000    
_SL_GrdRMS=  0.000000000000000    
_SL_Hss_Q=  0.000000000000000    
_SL_Hss_X=  0.000000000000000    
_SL_BMxOld=  0.000000000000000    
_SL_KtB=  0.000000000000000    
_SL_TROld=  0.000000000000000    
_SL_No_of_Intern=  0.000000000000000    
_SL_Hess=  0.000000000000000    
_SL_K=  0.000000000000000    
!LATTICE= -1.000000000000000    
!NEWLATTICE=  0.000000000000000    
!LATGRAD_VAR=FALSE
!SEW_LATTICE=  1.000000000000000    
!AIC_ONEEL=  0.000000000000000    
!LOCAL=  0.000000000000000    
!SAVEDOM= -1.000000000000000    
!RESTDOM= -1.000000000000000    
!SAVEDOM_HF= -1.000000000000000    
!RESTDOM_HF= -1.000000000000000    
!HESSREC=  0.000000000000000    
!FREQREC=  0.000000000000000    
!NMODREC=  0.000000000000000    
!GTASKS=  0.000000000000000    
!HTASKS=  0.000000000000000    
!SAVEDOM_EOM= -1.000000000000000    
!RESTDOM_EOM= -1.000000000000000    
!GRADSTATE= -1.000000000000000    
!DEBUG=  0.000000000000000    
!CFIT_CPHF=  0.000000000000000    
!RDOMAUX_CPHF=  0.000000000000000    
!THRAO_CPHF= 0.1000000000000000E-11
!THRMO_CPHF= 0.1000000000000000E-11
!THROV_CPHF= 0.1000000000000000E-11
!THRSW_CPHF= 0.1000000000000000E-11
!THRPROD_CPHF= 0.1000000000000000E-11
!THRAOPR_CPHF= 0.1000000000000000E-11
!CFIT_SCFGRD=  0.000000000000000    
!RDOMAUX_SCFGRD=  0.000000000000000    
!THRAO_SCFGRD= 0.1000000000000000E-11
!THRMO_SCFGRD= 0.1000000000000000E-11
!THROV_SCFGRD= 0.1000000000000000E-11
!THRSW_SCFGRD= 0.1000000000000000E-11
!THRPROD_SCFGRD= 0.1000000000000000E-11
!THRAOPR_SCFGRD= 0.1000000000000000E-11
!LOCFIT_SCF=  0.000000000000000    
!LOCFIT_MP2=  0.000000000000000    
_RIDOM=  0.000000000000000    
!CC2_METHOD=  0.000000000000000    
_BASIS2006=FALSE
_SVDDEL= -1.000000000000000    
_SVDDELA= -1.000000000000000    
_SVDDELP= -1.000000000000000    
_SVDDELF= -1.000000000000000    
_SVDDELS= -1.000000000000000    
_SVDDEL_ABS= -1.000000000000000    
_SVDDELA_ABS= -1.000000000000000    
_SVDDELP_ABS= -1.000000000000000    
_SVDDELF_ABS= -1.000000000000000    
_SVDDELS_ABS= -1.000000000000000    
_MAXBASIS=  0.000000000000000    
!OPT_CONICAL=  0.000000000000000    
!CLEARSP_JGRID=  0.000000000000000    
_GRDHYBR=  0.000000000000000    
_STATEGRAD=  1.000000000000000    
_4EXT_NDISKS=  1.000000000000000    
!EMBEDFLAG=  1.000000000000000    
!EMBED=FALSE
!EMBED_F12=FALSE
!EMBEDNUC=  0.000000000000000    
_EMBEDENERGY=  0.000000000000000    
!EMBED_DFC=FALSE
!NUM_VOIDS=  0.000000000000000    
_IBODY=  0.000000000000000    
_EMBE_CORR=  0.000000000000000    
!EMBED_PROJ=FALSE
!EMB_PROJ_ZMU=  1000000.000000000    
!CORRECTION_HF=  0.000000000000000    
!EMBED_AORB=  0.000000000000000    
!EMBED_NACORR=  0.000000000000000    
!EMBED_MP2=FALSE
!EMBED_TRUNC_PERTURBATION=FALSE
!EMBED_FROZEN=  0.000000000000000    
!EMBED_ACTIVE=  0.000000000000000    
_CHANGE_BASIS=FALSE
_RESTORE_BASIS=FALSE
_FIX_EMBED_GUESS=FALSE
_EMBED_SCF=FALSE
_HUZINAGA_T=FALSE
_HUZINAGA_F=FALSE
_HUZINAGA=FALSE
_HUZINAGA_CORRECT=FALSE
!FASTLATGRAD=  1.000000000000000    
!FASTVLAMBDA= -1.000000000000000    
!IFORCE= -1.000000000000000    
!USESYM= -1.000000000000000    
_SINDEX=  0.000000000000000    
_AVDOM_OSV=  0.000000000000000    
_AVDOM_PNO=  0.000000000000000    
_AVDOM_PAO=  0.000000000000000    
_AVDOM_LMO=  0.000000000000000    
_CC2OSV_FLAG=  0.000000000000000    
_EOMCCSD_CONV=FALSE
_TMADC2_FLAG=FALSE
_PROPADC2_FLAG=FALSE
_LEN_VirQ=  0.000000000000000    
_GRDCC2LR_FLAG=FALSE
_GRDADC2_FLAG=FALSE
_DMX_CC=-0.1348713873380425E-02
_DMY_CC=-0.3038385942003341E-02
_DMZ_CC= 0.6708752253290484E-03
_DMX_NUC= 0.8968091240000864E-03
_DMY_NUC= 0.1759142126000146E-02
_DMZ_NUC=-0.4080016559999677E-03
_RO_VGLOBAL=  0.000000000000000    
_OPT=FALSE
_FREQ=FALSE
_HESS=FALSE
_CMRCC_callName=EMPTY
_CMRCC_callCount=  0.000000000000000    
_GECCO_CIROOT=  1.000000000000000    
_SYM_CATION=  0.000000000000000    
_MON_A=FALSE
_MON_B=FALSE
R1=  1.078500000000000    
R2=  1.078700000000000    
R3=  1.078600000000000    
A2=  118.7889000000000    
A3=  118.7961000000000    
D3=  201.7534000000000    
R21=  1.078500000000000    
R22=  1.078700000000000    
R23=  1.078600000000000    
A22=  118.7750000000000    
A23=  118.8068000000000    
D23=  158.2809000000000    
ANG2=  96.21100000000000    
DH3=  100.6444000000000    
DH2=  59.75040000000000    
DH1=  100.7619000000000    
ANG1=  96.22369999999999    
BB=  2.800000000000000    
GX1= 0.6404295291623750E-04
GY1=-0.2187303436649857E-03
GZ1= -2.645582089191910    
GX2= 0.9802576012005078E-01
GY2=  2.023463990883807    
GZ2= -2.866578794573202    
GX3=  1.704169336978119    
GY3= -1.095952811884321    
GZ3= -2.870660892388582    
GX4= -1.800283993119126    
GY4=-0.9272212687511667    
GZ4= -2.877770278395346    
GX5=-0.2156235699436685E-03
GY5=-0.7860366191497770E-04
GZ5=  2.645651050513928    
GX6= -1.699065366063091    
GY6=  1.104036396746749    
GZ6=  2.866031213681774    
GX7=  1.804545548198741    
GY7= 0.9212353404486304    
GZ7=  2.867656067318757    
GX8=-0.1055849932886163    
GY8= -2.022018501283193    
GZ8=  2.880500914768370    
CBSEN= -79.40815122839027    
[Atoms] Angs
C     1    6         0.0000338901       -0.0001157471       -1.3999817512
H     2    1         0.0518729983        1.0707710311       -1.5169281713
H     3    1         0.9018075766       -0.5799532523       -1.5190883245
H     4    1        -0.9526692623       -0.4906643649       -1.5228504495
C     5    6        -0.0001141031       -0.0000415953        1.4000182439
H     6    1        -0.8991066716        0.5842309012        1.5166384040
H     7    1         0.9549243801        0.4874967480        1.5174982395
H     8    1        -0.0558731723       -1.0700061109        1.5242954401
[GTO]
   1 0
 s    9  1.00
  0.6665000000D+04  0.6920001793D-03
  0.1000000000D+04  0.5329001381D-02
  0.2280000000D+03  0.2707700701D-01
  0.6471000000D+02  0.1017180264D+00
  0.2106000000D+02  0.2747400712D+00
  0.7495000000D+01  0.4485641162D+00
  0.2797000000D+01  0.2850740738D+00
  0.5215000000D+00  0.1520400394D-01
  0.1596000000D+00 -0.3191000827D-02
 s    9  1.00
  0.6665000000D+04 -0.1460000642D-03
  0.1000000000D+04 -0.1154000508D-02
  0.2280000000D+03 -0.5725002519D-02
  0.6471000000D+02 -0.2331201026D-01
  0.2106000000D+02 -0.6395502813D-01
  0.7495000000D+01 -0.1499810660D+00
  0.2797000000D+01 -0.1272620560D+00
  0.5215000000D+00  0.5445292395D+00
  0.1596000000D+00  0.5804962554D+00
 s    9  1.00
  0.6665000000D+04  0.0000000000D+00
  0.1000000000D+04  0.0000000000D+00
  0.2280000000D+03  0.0000000000D+00
  0.6471000000D+02  0.0000000000D+00
  0.2106000000D+02  0.0000000000D+00
  0.7495000000D+01  0.0000000000D+00
  0.2797000000D+01  0.0000000000D+00
  0.5215000000D+00  0.0000000000D+00
  0.1596000000D+00  0.1000000000D+01
 p    4  1.00
  0.9439000000D+01  0.3810902127D-01
  0.2002000000D+01  0.2094801169D+00
  0.5456000000D+00  0.5085572839D+00
  0.1517000000D+00  0.4688422617D+00
 p    4  1.00
  0.9439000000D+01  0.0000000000D+00
  0.2002000000D+01  0.0000000000D+00
  0.5456000000D+00  0.0000000000D+00
  0.1517000000D+00  0.1000000000D+01
 d    1  1.00
  0.5500000000D+00  0.1000000000D+01
  
   2 0
 s    4  1.00
  0.1301000000D+02  0.1968498999D-01
  0.1962000000D+01  0.1379769298D+00
  0.4446000000D+00  0.4781477569D+00
  0.1220000000D+00  0.5012397451D+00
 s    4  1.00
  0.1301000000D+02  0.0000000000D+00
  0.1962000000D+01  0.0000000000D+00
  0.4446000000D+00  0.0000000000D+00
  0.1220000000D+00  0.1000000000D+01
 p    1  1.00
  0.7270000000D+00  0.1000000000D+01
  
   3 0
 s    4  1.00
  0.1301000000D+02  0.1968498999D-01
  0.1962000000D+01  0.1379769298D+00
  0.4446000000D+00  0.4781477569D+00
  0.1220000000D+00  0.5012397451D+00
 s    4  1.00
  0.1301000000D+02  0.0000000000D+00
  0.1962000000D+01  0.0000000000D+00
  0.4446000000D+00  0.0000000000D+00
  0.1220000000D+00  0.1000000000D+01
 p    1  1.00
  0.7270000000D+00  0.1000000000D+01
  
   4 0
 s    4  1.00
  0.1301000000D+02  0.1968498999D-01
  0.1962000000D+01  0.1379769298D+00
  0.4446000000D+00  0.4781477569D+00
  0.1220000000D+00  0.5012397451D+00
 s    4  1.00
  0.1301000000D+02  0.0000000000D+00
  0.1962000000D+01  0.0000000000D+00
  0.4446000000D+00  0.0000000000D+00
  0.1220000000D+00  0.1000000000D+01
 p    1  1.00
  0.7270000000D+00  0.1000000000D+01
  
   5 0
 s    9  1.00
  0.6665000000D+04  0.6920001793D-03
  0.1000000000D+04  0.5329001381D-02
  0.2280000000D+03  0.2707700701D-01
  0.6471000000D+02  0.1017180264D+00
  0.2106000000D+02  0.2747400712D+00
  0.7495000000D+01  0.4485641162D+00
  0.2797000000D+01  0.2850740738D+00
  0.5215000000D+00  0.1520400394D-01
  0.1596000000D+00 -0.3191000827D-02
 s    9  1.00
  0.6665000000D+04 -0.1460000642D-03
  0.1000000000D+04 -0.1154000508D-02
  0.2280000000D+03 -0.5725002519D-02
  0.6471000000D+02 -0.2331201026D-01
  0.2106000000D+02 -0.6395502813D-01
  0.7495000000D+01 -0.1499810660D+00
  0.2797000000D+01 -0.1272620560D+00
  0.5215000000D+00  0.5445292395D+00
  0.1596000000D+00  0.5804962554D+00
 s    9  1.00
  0.6665000000D+04  0.0000000000D+00
  0.1000000000D+04  0.0000000000D+00
  0.2280000000D+03  0.0000000000D+00
  0.6471000000D+02  0.0000000000D+00
  0.2106000000D+02  0.0000000000D+00
  0.7495000000D+01  0.0000000000D+00
  0.2797000000D+01  0.0000000000D+00
  0.5215000000D+00  0.0000000000D+00
  0.1596000000D+00  0.1000000000D+01
 p    4  1.00
  0.9439000000D+01  0.3810902127D-01
  0.2002000000D+01  0.2094801169D+00
  0.5456000000D+00  0.5085572839D+00
  0.1517000000D+00  0.4688422617D+00
 p    4  1.00
  0.9439000000D+01  0.0000000000D+00
  0.2002000000D+01  0.0000000000D+00
  0.5456000000D+00  0.0000000000D+00
  0.1517000000D+00  0.1000000000D+01
 d    1  1.00
  0.5500000000D+00  0.1000000000D+01
  
   6 0
 s    4  1.00
  0.1301000000D+02  0.1968498999D-01
  0.1962000000D+01  0.1379769298D+00
  0.4446000000D+00  0.4781477569D+00
  0.1220000000D+00  0.5012397451D+00
 s    4  1.00
  0.1301000000D+02  0.0000000000D+00
  0.1962000000D+01  0.0000000000D+00
  0.4446000000D+00  0.0000000000D+00
  0.1220000000D+00  0.1000000000D+01
 p    1  1.00
  0.7270000000D+00  0.1000000000D+01
  
   7 0
 s    4  1.00
  0.1301000000D+02  0.1968498999D-01
  0.1962000000D+01  0.1379769298D+00
  0.4446000000D+00  0.4781477569D+00
  0.1220000000D+00  0.5012397451D+00
 s    4  1.00
  0.1301000000D+02  0.0000000000D+00
  0.1962000000D+01  0.0000000000D+00
  0.4446000000D+00  0.0000000000D+00
  0.1220000000D+00  0.1000000000D+01
 p    1  1.00
  0.7270000000D+00  0.1000000000D+01
  
   8 0
 s    4  1.00
  0.1301000000D+02  0.1968498999D-01
  0.1962000000D+01  0.1379769298D+00
  0.4446000000D+00  0.4781477569D+00
  0.1220000000D+00  0.5012397451D+00
 s    4  1.00
  0.1301000000D+02  0.0000000000D+00
  0.1962000000D+01  0.0000000000D+00
  0.4446000000D+00  0.0000000000D+00
  0.1220000000D+00  0.1000000000D+01
 p    1  1.00
  0.7270000000D+00  0.1000000000D+01


[MO]
 Sym=      1.1
 Ene=     -11.2324
 Spin= Alpha
 Occup=    2.000000
1 0.71709861199624
2 0.005240096506218
3 -0.005163676799007
4 0.000000451898991
5 0.000001248578472
6 -0.000425069206814
7 0.000000430723965
8 -0.000001360110959
9 0.000307842754154
10 0.000224970833385
11 0.000225291530472
12 -0.000450262363857
13 0.000000161352070
14 0.000001893770943
15 0.000002043201557
16 -0.000441144079209
17 0.001062752376268
18 0.000016514400440
19 0.000341460411447
20 -0.000101973358214
21 -0.000441613349515
22 0.001062639670243
23 0.000287548409513
24 -0.000184587226404
25 -0.000102570172633
26 -0.000441709253178
27 0.001063511240658
28 -0.000303724492240
29 -0.000156049020246
30 -0.000103740659700
31 0.69873977839071
32 0.005077308657784
33 -0.004981012478915
34 -0.000000027289633
35 0.000001470362516
36 0.000422546552235
37 -0.000000621060609
38 -0.000000493062846
39 -0.000322486501386
40 0.000217137937415
41 0.000217937664148
42 -0.000435075601563
43 -0.000000368846881
44 0.000000219335069
45 -0.000003837890822
46 -0.000436964200781
47 0.001036494888954
48 -0.000278905273776
49 0.000181236502123
50 0.000102416309288
51 -0.000435543642890
52 0.001035528536411
53 0.000296238040274
54 0.000151318481603
55 0.000102635701172
56 -0.000437211007351
57 0.001037330815825
58 -0.000017370922615
59 -0.000331875563045
60 0.000104718728874
 Sym=      2.1
 Ene=     -11.2324
 Spin= Alpha
 Occup=    2.000000
1 0.69904166462903
2 0.006214016759074
3 -0.006970591648738
4 0.000000041407642
5 0.000000453851560
6 -0.000071392717319
7 -0.000001476141766
8 -0.000000426994860
9 -0.000585930396043
10 0.000291160260692
11 0.000291276199143
12 -0.000582436459835
13 0.000000531546595
14 0.000001581129540
15 0.000001840005572
16 -0.000189099859765
17 0.001011251221118
18 0.000017004520316
19 0.000349239246649
20 0.000025113941266
21 -0.000188123200671
22 0.001010068602801
23 0.000294166057243
24 -0.000188876566293
25 0.000024448669307
26 -0.000191429525468
27 0.001010710100156
28 -0.000311078897695
29 -0.000160068227133
30 0.000023194453754
31 -0.71739275416012
32 -0.006347805507531
33 0.007101929575105
34 0.000000101975503
35 -0.000000470685472
36 -0.000081569170778
37 -0.000000734121018
38 0.000002656418004
39 -0.000578229894033
40 -0.000296154419359
41 -0.000297801523222
42 0.000593955942581
43 0.000000030056955
44 -0.000000110834350
45 0.000003438207613
46 0.000198996022485
47 -0.001037946602036
48 0.000300336187591
49 -0.000195258122422
50 0.000022638140782
51 0.000199697430622
52 -0.001037502137212
53 -0.000319104201184
54 -0.000163142235523
55 0.000022382359615
56 0.000204247792655
57 -0.001038116812961
58 0.000018866467139
59 0.000358263562934
60 0.000020032825450
 Sym=      3.1
 Ene=      -0.9061
 Spin= Alpha
 Occup=    2.000000
1 -0.019907618164442
2 0.52691713899776
3 -0.10379422326690
4 0.000088172575515
5 0.000166859273055
6 -0.038650600289988
7 -0.000005248760454
8 -0.000022183200857
9 0.007114923464411
10 0.000885683861549
11 0.000895444569848
12 -0.001781128431396
13 -0.000001078879337
14 0.000007340354244
15 0.000011227552684
16 0.24564995873710
17 -0.10171055110328
18 -0.000956778100690
19 -0.019798675154384
20 0.000925742242030
21 0.24549887509604
22 -0.10163976145194
23 -0.016663666904568
24 0.010719581848807
25 0.000964972258523
26 0.24553228908799
27 -0.10165332048651
28 0.017614516877050
29 0.009072320652284
30 0.001036691638259
31 -0.019905570037100
32 0.52687486035607
33 -0.10377981201735
34 -0.000033840399343
35 0.000255519525079
36 0.038601083316457
37 0.000017434742820
38 -0.000037092541527
39 -0.007098144774747
40 0.000896111973009
41 0.000885532672803
42 -0.001781644645812
43 -0.000004051392335
44 -0.000001440630217
45 -0.000017153489520
46 0.24560566965672
47 -0.10169203039555
48 0.016620109950894
49 -0.010795756325431
50 -0.000920090387396
51 0.24551073240251
52 -0.10164582044858
53 -0.017650513660396
54 -0.009003763685102
55 -0.000935763126966
56 0.24548403212652
57 -0.10163783720657
58 0.001029863728922
59 0.019783840524250
60 -0.001064442048948
 Sym=      4.1
 Ene=      -0.8855
 Spin= Alpha
 Occup=    2.000000
1 -0.018584583129732
2 0.53925146510896
3 -0.11073235723745
4 0.000034630952628
5 0.000097415164933
6 -0.047192784506073
7 -0.000005958527756
8 -0.000026670179237
9 0.006382806588124
10 0.001763152710713
11 0.001761682944648
12 -0.003524835655361
13 0.000003188757823
14 0.000009729831006
15 0.000010355291188
16 0.25319860105144
17 -0.10487602310045
18 -0.000974105581808
19 -0.020136877813896
20 0.001182159880871
21 0.25310594480364
22 -0.10482922424961
23 -0.016950723058661
24 0.010902752282157
25 0.001220024781256
26 0.25323183040334
27 -0.10488443920160
28 0.017918076195414
29 0.009228545187772
30 0.001294172341197
31 0.018587243964789
32 -0.53930994409406
33 0.11073430939513
34 0.000037317570372
35 -0.000139044670753
36 -0.047129528071879
37 -0.000018124457795
38 0.000043388124795
39 0.006374009776589
40 -0.001758508809178
41 -0.001766164190597
42 0.003524672999776
43 0.000001737412606
44 0.000000005375070
45 0.000019606871744
46 -0.25320584981015
47 0.10487730405259
48 -0.016907415301551
49 0.010983964255012
50 0.001175090542053
51 -0.25311671644463
52 0.10483409349092
53 0.017955220092614
54 0.009161008649650
55 0.001192268648778
56 -0.25326539744688
57 0.10490323818929
58 -0.001048291206576
59 -0.020129248901144
60 0.001322884645033
 Sym=      5.1
 Ene=      -0.5701
 Spin= Alpha
 Occup=    2.000000
1 -0.000003495229243
2 -0.000223073775859
3 0.000017248249366
4 -0.070236649891434
5 0.44427049673238
6 0.000973909468194
7 0.013284669249097
8 -0.084313172936428
9 -0.000179152677406
10 -0.013815537925686
11 0.013825930923803
12 -0.000010392998117
13 0.004959627846927
14 0.000789279994975
15 -0.005112293648532
16 0.43519709627560
17 -0.12240265516378
18 -0.002555527887416
19 -0.014803295433684
20 0.002373814510515
21 -0.29610278901741
22 0.083307377801829
23 0.012176568740569
24 0.000170087182388
25 -0.001616788188166
26 -0.13944905133856
27 0.039218633364310
28 -0.008169602895521
29 0.005423138624262
30 -0.000779125579214
31 0.000001245836999
32 -0.000128674815660
33 -0.000005915296672
34 -0.072674334328861
35 0.44469951963758
36 -0.001956494357923
37 0.013811888700438
38 -0.084350970727009
39 0.000400059579311
40 0.013755362376449
41 -0.013716443636613
42 -0.000038918739836
43 -0.005238779818929
44 -0.000818471295427
45 0.005226095413716
46 0.29954284028807
47 -0.084275925149080
48 0.012244452226331
49 0.000009195780765
50 -0.001651734341419
51 0.13561670392501
52 -0.038160480612941
53 -0.008043062068535
54 0.005549675874498
55 -0.000775839056702
56 -0.43527799693901
57 0.12247605875342
58 -0.002692271858393
59 -0.014783833005975
60 0.002478867997189
 Sym=      6.1
 Ene=      -0.5700
 Spin= Alpha
 Occup=    2.000000
1 0.000001805803628
2 -0.000015582081646
3 0.000000187104487
4 0.44451954117624
5 0.072454799542950
6 0.001077202693671
7 -0.084275944262666
8 -0.013761417571480
9 -0.000226860829428
10 -0.004341355436013
11 0.004364259113662
12 -0.000022903677649
13 -0.015929228220420
14 -0.005208396437649
15 -0.000867254527781
16 0.092673782995565
17 -0.026075419574549
18 0.008665383459036
19 -0.003595745245499
20 0.000522062753087
21 0.33075293316094
22 -0.093038154226896
23 -0.006261893103102
24 0.011207126253171
25 0.001845555056892
26 -0.42343363494561
27 0.11912366754644
28 -0.011613255875944
29 -0.009115795113371
30 -0.002396013976151
31 -0.000000016621045
32 -0.000106303537785
33 0.000046729804571
34 0.44443362838907
35 0.070457246243075
36 -0.000267235634280
37 -0.084304930792411
38 -0.013358171416923
39 0.000045750441801
40 0.004461816069534
41 -0.004459542127758
42 -0.000002273941776
43 0.015914478139241
44 0.005085407848472
45 0.000841264507429
46 -0.33060719051451
47 0.093004800258982
48 -0.006212487644039
49 0.011240313960016
50 0.001777981621891
51 0.42298083834667
52 -0.11894223840925
53 -0.011638149322570
54 -0.009076248837170
55 -0.002304674502875
56 -0.092483579982363
57 0.026005314015337
58 0.008645711849685
59 -0.003623129180522
60 0.000532208463389
 Sym=      7.1
 Ene=      -0.5581
 Spin= Alpha
 Occup=    2.000000
1 0.000000182282167
2 0.000177641041154
3 -0.000063980152584
4 0.012521856380932
5 0.45783122188359
6 0.001012026614373
7 -0.002434155811836
8 -0.088557301425112
9 -0.000216748001369
10 -0.014610468914304
11 0.014643265570926
12 -0.000032796656622
13 0.001993830938918
14 -0.000213875688077
15 -0.006567649430620
16 0.45561216437022
17 -0.12592125803080
18 -0.000953635299144
19 -0.015711063274378
20 0.002051169991641
21 -0.23586268311133
22 0.065163918126638
23 0.011082422468152
24 0.002178664784224
25 -0.001053460553651
26 -0.21950728766578
27 0.060657860972889
28 -0.010401684529385
29 0.003661648980644
30 -0.001019458344786
31 0.000000523152455
32 -0.000109890344823
33 0.000017716731070
34 -0.014472052595174
35 -0.45776645606561
36 0.001926919000118
37 0.002784864809547
38 0.088567357403953
39 -0.000413723225332
40 -0.014603935788817
41 0.014554908355825
42 0.000049027432992
43 0.002111672383549
44 -0.000217214701223
45 -0.006681184756170
46 -0.23594524211786
47 0.065228185493193
48 -0.011098623848158
49 -0.002121471520017
50 0.001084561827305
51 -0.21975550753851
52 0.060716944039884
53 0.010402755701738
54 -0.003686830801830
55 0.001024545330770
56 0.45550184873134
57 -0.12585328328313
58 0.001005245271656
59 0.015682249173067
60 -0.002157703141698
 Sym=      8.1
 Ene=      -0.5581
 Spin= Alpha
 Occup=    2.000000
1 -0.000001215672634
2 0.000026656231637
3 0.000025982760593
4 0.45796833545142
5 -0.014700186383131
6 0.000902895772178
7 -0.088565604913033
8 0.002812569852233
9 -0.000194223672631
10 -0.001630385666568
11 0.001650042026845
12 -0.000019656360277
13 -0.016881052798670
14 -0.006662598646964
15 0.000178979868534
16 0.007332319158024
17 -0.002016268439353
18 0.009130946651846
19 -0.000694408126936
20 0.000049432617860
21 0.39107557678767
22 -0.10805374754516
23 -0.008813001989959
24 0.011257814393664
25 0.001800379696385
26 -0.39837676707644
27 0.11005143418857
28 -0.010183456014121
29 -0.010250341592208
30 -0.001874857212203
31 -0.000002941420246
32 -0.000087547179536
33 -0.000000404630760
34 -0.45764101897484
35 0.012339464357592
36 -0.000177278962724
37 0.088479924972165
38 -0.002419232020652
39 0.000034252182874
40 -0.001902212264990
41 0.001898527325131
42 0.000003684939859
43 -0.016870430960322
44 -0.006529650300272
45 0.000169587399072
46 0.38848576735625
47 -0.10735251965665
48 0.008650681767810
49 -0.011315199472837
50 -0.001723854841498
51 -0.40006729318044
52 0.11054100758988
53 0.010318265783579
54 0.010179969924119
55 0.001788246817783
56 0.011396867716666
57 -0.003153791549730
58 -0.009110752700426
59 0.000865980805615
60 -0.000058509017121
 Sym=      9.1
 Ene=      -0.2156
 Spin= Alpha
 Occup=    1.594457
1 0.000466479525864
2 0.056515336778083
3 0.019254592407962
4 -0.001293362628568
5 -0.001395767865995
6 0.57148939929732
7 -0.000158166649046
8 -0.000134210743787
9 0.068191546267716
10 -0.004286572551906
11 -0.004286656126960
12 0.008573228678866
13 0.000004485609596
14 -0.000020712466734
15 -0.000027603120814
16 -0.050198724794590
17 0.015367982726172
18 0.000062723413451
19 0.001853397381473
20 0.013801238057172
21 -0.050190171067092
22 0.015488448069594
23 0.001553086505946
24 -0.001050522229293
25 0.013798975818932
26 -0.050053735413868
27 0.015483175866241
28 -0.001695533736503
29 -0.000891809028529
30 0.013787530624637
31 0.000465923177699
32 0.056371693732532
33 0.019215527872256
34 0.000163425226391
35 -0.002687881270421
36 -0.57148896842267
37 0.000027528967610
38 -0.000307894751864
39 -0.068206192925744
40 -0.004288934179275
41 -0.004281110683656
42 0.008570044862931
43 0.000004882684063
44 0.000001151714768
45 0.000043732759389
46 -0.050219233200061
47 0.015454593241933
48 -0.001578296436434
49 0.000965763147285
50 -0.013808550086093
51 -0.050142628481478
52 0.015384600947673
53 0.001681365423379
54 0.000795893957825
55 -0.013798424203527
56 -0.049976250357086
57 0.015491830552557
58 -0.000095236325830
59 -0.001929094783354
60 -0.013785362537325
 Sym=     10.1
 Ene=       0.0368
 Spin= Alpha
 Occup=    0.405543
1 -0.000739886393680
2 0.13893283738976
3 0.062630566848533
4 -0.001390281602086
5 -0.001624399364679
6 0.71998703268460
7 -0.000088733393977
8 -0.000102338369044
9 0.050261897655311
10 -0.004594809357761
11 -0.004590374720664
12 0.009185184078425
13 -0.000004704958041
14 -0.000037624692260
15 -0.000037475999491
16 -0.017754604708901
17 -0.007305474676601
18 -0.000020417068488
19 0.000120527123531