[Molden Format]
[Molpro variables]
_NUMVAR=  1038.000000000000    
_AVOGAD= 0.6022140760000000E+24
_BOLTZ= 0.1380649000000000E-22
_CLIGHTSI=  299792458.0000000    
_JOULE= 0.4359744722207100E-17
_JPCAL=  4.184000000000000    
_PLANCK= 0.6626070150000000E-33
_BOHR= 0.5291772109030000E-10
_ECHARG= 0.1602176634000000E-18
_ENULL= 0.8854187812800001E-11
_MU= 0.1660539066600000E-26
_EMASS= 0.9109383701500001E-30
_AMU2AU=  1822.888486217313    
_CLIGHT=  29979245800.00000    
_EV= 0.3674932217565494E-01
_KJOULE= 0.3808798847133432E-03
_KJOULE/MOL= 0.3808798847133432E-03
_CM= 0.4556335252912009E-05
_CM-1= 0.4556335252912009E-05
_DEB2SI= 0.3335640951981520E-29
_KCAL= 0.1593601437640628E-02
_KCAL/MOL= 0.1593601437640628E-02
_KELVIN= 0.3166811563455608E-05
_HERTZ= 0.1519829846057038E-15
_HZ= 0.1519829846057038E-15
_TOA= 0.5291772109030000    
_TOANG= 0.5291772109030000    
_TORAD= 0.1745329251994330E-01
_TOCM=  219474.6313631965    
_TODEBYE=  2.541746473194078    
_TOE= 0.4803204712570263E-09
_TOEV=  27.21138624598803    
_TOHERTZ=  6579683920501656.    
_TOHZ=  6579683920501656.    
_TOK=  315775.0248040668    
_TOKCAL=  627.5094740630558    
_TOKELVIN=  315775.0248040668    
_TOKJ=  2625.499639479825    
_TOKJOULE=  2625.499639479825    
_TOKG= 0.1660539066600000E-26
_ANG=  1.889726124625770    
_ANGSTROM=  1.889726124625770    
_RPAREF=  0.000000000000000    
_RPADISS=  0.000000000000000    
_IGNORE_UNDEF=  2.000000000000000    
_STRICTCHECK=  0.000000000000000    
!SEWARD=  0.000000000000000    
!MULTI=  0.000000000000000    
!DFMULTI=  0.000000000000000    
_SEW_ONEEL=  0.000000000000000    
_CPPDONE=FALSE
_DKROLL_DONE=  0.000000000000000    
_FNUC_DONE=  0.000000000000000    
_FOCKDONE=  0.000000000000000    
_GRADONE=FALSE
_HESSDONE=FALSE
_INTDONE=TRUE
_SCFDONE=FALSE
_MODUL_BLOCK=FALSE
_MODUL_CUDA=FALSE
_MODUL_SLATER=FALSE
_MODUL_MRCC=TRUE
_MODUL_NBO6=FALSE
_MODUL_NECI=FALSE
_MODUL_AIMS=TRUE
_MODUL_GECCO=FALSE
_ISWINDOWS=FALSE
_MRCC_EXEC=/software/cinetica/mrcc/bin/dmrcc
_FITC_AO_SAVED=FALSE
_FITC_MO_SAVED=FALSE
_SHARED_FS=TRUE
_LSTYP=SEWARD
_INTYP=INTS
_GEOMTYP=ZMAT
_GRADTYP=ALASKA
_DIRECT=FALSE
_DKHO= -1.000000000000000    
_FNUC=  0.000000000000000    
_SYNCM=  0.000000000000000    
_BASIS=CC-PVDZ
_ZORIENT=  1.000000000000000    
!ZORIENT=  0.000000000000000    
_NELEC=  10.00000000000000    
!SPIN=  0.000000000000000    
_QSDSTEP=  0.000000000000000    
_QSDIRC=  0.000000000000000    
_PROGRAM=RS2
_CPUSTEP= 0.7000000000000006E-01
_SYSSTEP= 0.2000000000000002E-01
_WALLSTEP= 0.1900000000000000    
!DFMP2=  0.000000000000000    
!DFHFENERG=  0.000000000000000    
!SCSGRD=  0.000000000000000    
_CPUTOT= 0.7000000000000000    
_DMX= 0.3128666765518817E-03
_DMY= 0.2095530372769050E-03
_DMZ=-0.3125831609701120    
_EMP2= -40.21460559058605    
_ENERGR= -40.07881185785055    
_ENERGU= -40.20617146112387    
_ENERGY= -40.21460559058605    
_ENERGY_METHOD=RS2
_ENERGY_BASIS=cc-pVDZ
_GEOMETRY_METHOD=
_GEOMETRY_BASIS=
_ENERGY_AVRG= -40.07881185785053    
_ENUC=  11.59308097350218    
_GRADMETHOD=  9.000000000000000    
_NMRMETHOD=  0.000000000000000    
_NMRMAGNET=  0.000000000000000    
!GRID_FREEZE= -1.000000000000000    
!NEESE_INDEX=  0.000000000000000    
_ITERATIONS=  5.000000000000000    
_LASTNELEC=  2.000000000000000    
_LASTSPIN=  0.000000000000000    
_LASTSYM=  1.000000000000000    
_MPP_PROG=  1.000000000000000    
_MSNSTATES=  0.000000000000000    
_RS2PHASE=  0.000000000000000    
_IPROC_MPP=  0.000000000000000    
_IPROC_MPPX=  0.000000000000000    
_NPROC_MPP=  4.000000000000000    
_NPROC_MPPX=  4.000000000000000    
_NPROC_SMP=  1.000000000000000    
_NUMSTEP=  0.000000000000000    
_ORBITAL=  2140.200000000000    
_PI=  3.141592653589793    
!MCACT=  2.000000000000000    
!MCCLOSED=  4.000000000000000    
!MCFREEZE=  0.000000000000000    
!MCMS2=  0.000000000000000    
!MCNEL=  2.000000000000000    
!MCNSTSYM=  1.000000000000000    
!MCSTATE=  1.000000000000000    
!MCSYM=  1.000000000000000    
!MCWEIGHT=  1.000000000000000    
_SEIG_MIN= 0.1468487484898448E-01
_SEWPROP=TRUE
_STATUS=  1.000000000000000    
_SYSTOT= 0.3200000000000000    
_VERSION=  2022002.000000000    
_WALLTOT=  1.580000000000000    
_DATE=03-Jun-23
_LASTORB=MCSCF
_OUTPUT=/home/chimica2/cavallotti/qm/barrierless/vrc_autom/folders/ch3+h/dist_2.4/molpro.out
_PGROUP=C1
_TIME=08:59:29
_LIBMOL=/software/cinetica/molpro_2022.2/lib/
_VIGRDC=  0.000000000000000    
!VIBCNT=  0.000000000000000    
!RGHFCNT=  0.000000000000000    
!SURFREC=  0.000000000000000    
!XSURFREC=  0.000000000000000    
!XPOLYREC=  0.000000000000000    
!ROTREC=  0.000000000000000    
!POLYREC=  0.000000000000000    
!DIPREC=  0.000000000000000    
!DIP4DREC=  0.000000000000000    
!DIPROT=  0.000000000000000    
!DIP4DROT=  0.000000000000000    
!PTREC=  0.000000000000000    
!PT4DREC=  0.000000000000000    
!VSCFREC=  0.000000000000000    
!VCIREC=  0.000000000000000    
!PVCIREC=  0.000000000000000    
!VMP2REC=  0.000000000000000    
!VMCSCFREC=  0.000000000000000    
!VMRCIREC=  0.000000000000000    
!VIBSTATEREC=  0.000000000000000    
!VIBSTATECNT=  0.000000000000000    
!VIBINFO=  0.000000000000000    
!GAREC=  0.000000000000000    
!MCORB=  21402.00000000000    
!DEFCORE=  1.000000000000000    
!SCORE=  0.000000000000000    
!NEWMOL= -1.000000000000000    
!NEWSYM= -1.000000000000000    
_SLFILES=slscratch
_NGSSTO=  9.000000000000000    
_SIN=SIN
_COS=COS
_TAN=TAN
_ACOS=ACOS
_ASIN=ASIN
_ATAN=ATAN
_COSH=COSH
_SINH=SINH
_TANH=TANH
_ABS=ABS
_MOD=MOD
_ERF=ERF
_REFC=REFC
_ERFC=ERFC
_HYPOT=HYPOT
_J0=J0
_J1=J1
_JN=JN
_GAMMA=GAMMA
_LGAMMA=LGAMMA
_Y0=Y0
_Y1=Y1
_YN=YN
_EXP=EXP
_LOG=LOG
_LOG10=LOG10
_SQRT=SQRT
_INT=INT
_NINT=NINT
_MAX=MAX
_MIN=MIN
_COSMO=  0.000000000000000    
_COSMOIT=  0.000000000000000    
_COSMOES=  0.000000000000000    
_COSMOEDS=  0.000000000000000    
_COSMOEC=  0.000000000000000    
_COSMOEDCORR=  0.000000000000000    
_FEPSI=  1.000000000000000    
_SL_IsMM=  0.000000000000000    
_SL_NSYM=  1.000000000000000    
_SL_System_BitSw=  0.000000000000000    
_SL_Unique_atoms=  0.000000000000000    
_SL_GRAD=  0.000000000000000    
_SL_MAXUPD_Hess=  5.000000000000000    
_SL_N_PRINT_COD=  5.000000000000000    
_SL_PRINT_CODES=  0.000000000000000    
_SL_BasType=  0.000000000000000    
_SL_Energy_Pred=  0.000000000000000    
_SL_New_Coords=  0.000000000000000    
_SL_Total_Nuclea=  0.000000000000000    
_SL_Highest_Mltp=  0.000000000000000    
_SL_Ref_Geom=  0.000000000000000    
_SL_Symmetry_ope=  1.000000000000000    
_SL_agrad=  0.000000000000000    
_SL_GrdMax=  0.000000000000000    
_SL_GrdNorm=  0.000000000000000    
_SL_GrdRMS=  0.000000000000000    
_SL_Hss_Q=  0.000000000000000    
_SL_Hss_X=  0.000000000000000    
_SL_BMxOld=  0.000000000000000    
_SL_KtB=  0.000000000000000    
_SL_TROld=  0.000000000000000    
_SL_No_of_Intern=  0.000000000000000    
_SL_Hess=  0.000000000000000    
_SL_K=  0.000000000000000    
!LATTICE= -1.000000000000000    
!NEWLATTICE=  0.000000000000000    
!LATGRAD_VAR=FALSE
!SEW_LATTICE=  1.000000000000000    
!AIC_ONEEL=  0.000000000000000    
!LOCAL=  0.000000000000000    
!SAVEDOM= -1.000000000000000    
!RESTDOM= -1.000000000000000    
!SAVEDOM_HF= -1.000000000000000    
!RESTDOM_HF= -1.000000000000000    
!HESSREC=  0.000000000000000    
!FREQREC=  0.000000000000000    
!NMODREC=  0.000000000000000    
!GTASKS=  0.000000000000000    
!HTASKS=  0.000000000000000    
!SAVEDOM_EOM= -1.000000000000000    
!RESTDOM_EOM= -1.000000000000000    
!GRADSTATE= -1.000000000000000    
!DEBUG=  0.000000000000000    
!CFIT_CPHF=  0.000000000000000    
!RDOMAUX_CPHF=  0.000000000000000    
!THRAO_CPHF= 0.1000000000000000E-11
!THRMO_CPHF= 0.1000000000000000E-11
!THROV_CPHF= 0.1000000000000000E-11
!THRSW_CPHF= 0.1000000000000000E-11
!THRPROD_CPHF= 0.1000000000000000E-11
!THRAOPR_CPHF= 0.1000000000000000E-11
!CFIT_SCFGRD=  0.000000000000000    
!RDOMAUX_SCFGRD=  0.000000000000000    
!THRAO_SCFGRD= 0.1000000000000000E-11
!THRMO_SCFGRD= 0.1000000000000000E-11
!THROV_SCFGRD= 0.1000000000000000E-11
!THRSW_SCFGRD= 0.1000000000000000E-11
!THRPROD_SCFGRD= 0.1000000000000000E-11
!THRAOPR_SCFGRD= 0.1000000000000000E-11
!LOCFIT_SCF=  0.000000000000000    
!LOCFIT_MP2=  0.000000000000000    
_RIDOM=  0.000000000000000    
!CC2_METHOD=  0.000000000000000    
_BASIS2006=FALSE
_SVDDEL= -1.000000000000000    
_SVDDELA= -1.000000000000000    
_SVDDELP= -1.000000000000000    
_SVDDELF= -1.000000000000000    
_SVDDELS= -1.000000000000000    
_SVDDEL_ABS= -1.000000000000000    
_SVDDELA_ABS= -1.000000000000000    
_SVDDELP_ABS= -1.000000000000000    
_SVDDELF_ABS= -1.000000000000000    
_SVDDELS_ABS= -1.000000000000000    
_MAXBASIS=  0.000000000000000    
!OPT_CONICAL=  0.000000000000000    
!CLEARSP_JGRID=  0.000000000000000    
_GRDHYBR=  0.000000000000000    
_STATEGRAD=  1.000000000000000    
_4EXT_NDISKS=  1.000000000000000    
!EMBEDFLAG=  1.000000000000000    
!EMBED=FALSE
!EMBED_F12=FALSE
!EMBEDNUC=  0.000000000000000    
_EMBEDENERGY=  0.000000000000000    
!EMBED_DFC=FALSE
!NUM_VOIDS=  0.000000000000000    
_IBODY=  0.000000000000000    
_EMBE_CORR=  0.000000000000000    
!EMBED_PROJ=FALSE
!EMB_PROJ_ZMU=  1000000.000000000    
!CORRECTION_HF=  0.000000000000000    
!EMBED_AORB=  0.000000000000000    
!EMBED_NACORR=  0.000000000000000    
!EMBED_MP2=FALSE
!EMBED_TRUNC_PERTURBATION=FALSE
!EMBED_FROZEN=  0.000000000000000    
!EMBED_ACTIVE=  0.000000000000000    
_CHANGE_BASIS=FALSE
_RESTORE_BASIS=FALSE
_FIX_EMBED_GUESS=FALSE
_EMBED_SCF=FALSE
_HUZINAGA_T=FALSE
_HUZINAGA_F=FALSE
_HUZINAGA=FALSE
_HUZINAGA_CORRECT=FALSE
!FASTLATGRAD=  1.000000000000000    
!FASTVLAMBDA= -1.000000000000000    
!IFORCE= -1.000000000000000    
!USESYM= -1.000000000000000    
_SINDEX=  0.000000000000000    
_AVDOM_OSV=  0.000000000000000    
_AVDOM_PNO=  0.000000000000000    
_AVDOM_PAO=  0.000000000000000    
_AVDOM_LMO=  0.000000000000000    
_CC2OSV_FLAG=  0.000000000000000    
_EOMCCSD_CONV=FALSE
_TMADC2_FLAG=FALSE
_PROPADC2_FLAG=FALSE
_LEN_VirQ=  0.000000000000000    
_GRDCC2LR_FLAG=FALSE
_GRDADC2_FLAG=FALSE
_DMX_CC=-0.1660905486953634E-02
_DMY_CC=-0.1073471661277248E-02
_DMZ_CC=  2.663804190098918    
_DMX_NUC=-0.5118719519999764E-03
_DMY_NUC=-0.5167204099998488E-03
_DMZ_NUC=  1.481541242677000    
_RO_VGLOBAL=  0.000000000000000    
_OPT=FALSE
_FREQ=FALSE
_HESS=FALSE
_CMRCC_callName=EMPTY
_CMRCC_callCount=  0.000000000000000    
_GECCO_CIROOT=  1.000000000000000    
_SYM_CATION=  0.000000000000000    
_MON_A=FALSE
_MON_B=FALSE
R1=  1.078400000000000    
R2=  1.078400000000000    
R3=  1.078400000000000    
A2=  119.2079000000000    
A3=  119.2064000000000    
D3=  197.7049000000000    
DH1=  98.79100000000000    
ANG1=  95.11030000000000    
BB=  2.400000000000000    
GX1= 0.8651770450220097E-04
GY1= 0.8733720043522381E-04
GZ1=-0.2504133039331629    
GX2= 0.8163331486777475E-01
GY2=  2.028297992653738    
GZ2=-0.4311595681272091    
GX3=  1.715914645838187    
GY3= -1.084282802449342    
GZ3=-0.4321625542292322    
GX4= -1.796456632709302    
GY4=-0.9434999036419778    
GZ4=-0.4375853709267471    
GX5=-0.2122306178670682E-02
GY5=-0.1556030172580380E-02
GZ5=  4.284928559558186    
CBSEN= -40.21460559058605    
[Atoms] Angs
C     1    6         0.0000457832        0.0000462169       -0.1325130137
H     2    1         0.0431984899        1.0733290746       -0.2281598177
H     3    1         0.9080229264       -0.5737777492       -0.2286905751
H     4    1        -0.9506439104       -0.4992786475       -0.2315602061
H     5    1        -0.0011230761       -0.0008234157        2.2674865441
[GTO]
   1 0
 s    9  1.00
  0.6665000000D+04  0.6920001793D-03
  0.1000000000D+04  0.5329001381D-02
  0.2280000000D+03  0.2707700701D-01
  0.6471000000D+02  0.1017180264D+00
  0.2106000000D+02  0.2747400712D+00
  0.7495000000D+01  0.4485641162D+00
  0.2797000000D+01  0.2850740738D+00
  0.5215000000D+00  0.1520400394D-01
  0.1596000000D+00 -0.3191000827D-02
 s    9  1.00
  0.6665000000D+04 -0.1460000642D-03
  0.1000000000D+04 -0.1154000508D-02
  0.2280000000D+03 -0.5725002519D-02
  0.6471000000D+02 -0.2331201026D-01
  0.2106000000D+02 -0.6395502813D-01
  0.7495000000D+01 -0.1499810660D+00
  0.2797000000D+01 -0.1272620560D+00
  0.5215000000D+00  0.5445292395D+00
  0.1596000000D+00  0.5804962554D+00
 s    9  1.00
  0.6665000000D+04  0.0000000000D+00
  0.1000000000D+04  0.0000000000D+00
  0.2280000000D+03  0.0000000000D+00
  0.6471000000D+02  0.0000000000D+00
  0.2106000000D+02  0.0000000000D+00
  0.7495000000D+01  0.0000000000D+00
  0.2797000000D+01  0.0000000000D+00
  0.5215000000D+00  0.0000000000D+00
  0.1596000000D+00  0.1000000000D+01
 p    4  1.00
  0.9439000000D+01  0.3810902127D-01
  0.2002000000D+01  0.2094801169D+00
  0.5456000000D+00  0.5085572839D+00
  0.1517000000D+00  0.4688422617D+00
 p    4  1.00
  0.9439000000D+01  0.0000000000D+00
  0.2002000000D+01  0.0000000000D+00
  0.5456000000D+00  0.0000000000D+00
  0.1517000000D+00  0.1000000000D+01
 d    1  1.00
  0.5500000000D+00  0.1000000000D+01
  
   2 0
 s    4  1.00
  0.1301000000D+02  0.1968498999D-01
  0.1962000000D+01  0.1379769298D+00
  0.4446000000D+00  0.4781477569D+00
  0.1220000000D+00  0.5012397451D+00
 s    4  1.00
  0.1301000000D+02  0.0000000000D+00
  0.1962000000D+01  0.0000000000D+00
  0.4446000000D+00  0.0000000000D+00
  0.1220000000D+00  0.1000000000D+01
 p    1  1.00
  0.7270000000D+00  0.1000000000D+01
  
   3 0
 s    4  1.00
  0.1301000000D+02  0.1968498999D-01
  0.1962000000D+01  0.1379769298D+00
  0.4446000000D+00  0.4781477569D+00
  0.1220000000D+00  0.5012397451D+00
 s    4  1.00
  0.1301000000D+02  0.0000000000D+00
  0.1962000000D+01  0.0000000000D+00
  0.4446000000D+00  0.0000000000D+00
  0.1220000000D+00  0.1000000000D+01
 p    1  1.00
  0.7270000000D+00  0.1000000000D+01
  
   4 0
 s    4  1.00
  0.1301000000D+02  0.1968498999D-01
  0.1962000000D+01  0.1379769298D+00
  0.4446000000D+00  0.4781477569D+00
  0.1220000000D+00  0.5012397451D+00
 s    4  1.00
  0.1301000000D+02  0.0000000000D+00
  0.1962000000D+01  0.0000000000D+00
  0.4446000000D+00  0.0000000000D+00
  0.1220000000D+00  0.1000000000D+01
 p    1  1.00
  0.7270000000D+00  0.1000000000D+01
  
   5 0
 s    4  1.00
  0.1301000000D+02  0.1968498999D-01
  0.1962000000D+01  0.1379769298D+00
  0.4446000000D+00  0.4781477569D+00
  0.1220000000D+00  0.5012397451D+00
 s    4  1.00
  0.1301000000D+02  0.0000000000D+00
  0.1962000000D+01  0.0000000000D+00
  0.4446000000D+00  0.0000000000D+00
  0.1220000000D+00  0.1000000000D+01
 p    1  1.00
  0.7270000000D+00  0.1000000000D+01


[MO]
 Sym=      1.1
 Ene=     -11.2535
 Spin= Alpha
 Occup=    2.000000
1 1.00135910254850
2 0.007734183642062
3 -0.008038380133690
4 0.000000173914538
5 0.000000073577883
6 -0.000218880634563
7 -0.000000133403671
8 0.000000150237352
9 -0.000051499954368
10 0.000371197094436
11 0.000371675664872
12 -0.000742872759307
13 0.000000095780361
14 0.000001964176147
15 0.000001437320690
16 -0.000530553187088
17 0.001497565812014
18 0.000019411005203
19 0.000480711411960
20 -0.000071784402006
21 -0.000530122290245
22 0.001497448640908
23 0.000406686386609
24 -0.000256761458016
25 -0.000071978649998
26 -0.000530762748581
27 0.001497774757228
28 -0.000425777573400
29 -0.000223477752521
30 -0.000073250336211
31 -0.000080825980781
32 0.000328638703095
33 0.000000035626042
34 0.000000026180946
35 -0.000227508903026
 Sym=      2.1
 Ene=      -0.9124
 Spin= Alpha
 Occup=    2.000000
1 -0.026689781811075
2 0.76050536562753
3 -0.15025949842697
4 0.000067582997380
5 0.000028209719973
6 -0.048229387700593
7 -0.000010377155397
8 0.000005314665211
9 0.009759338231252
10 0.001862642951849
11 0.001863078209727
12 -0.003725721161576
13 -0.000000606100491
14 0.000009955259315
15 0.000007371809423
16 0.35077510807398
17 -0.14754193052922
18 -0.001144452455501
19 -0.028503305950996
20 0.001077390538632
21 0.35079102370922
22 -0.14754229123247
23 -0.024113311630493
24 0.015239987260200
25 0.001091670588040
26 0.35080683670004
27 -0.14754584955065
28 0.025252851618532
29 0.013262442163566
30 0.001169231663521
31 0.011835907443022
32 -0.002966590444890
33 0.000000869257165
34 0.000000599362493
35 -0.001330582605188
 Sym=      3.1
 Ene=      -0.5809
 Spin= Alpha
 Occup=    2.000000
1 -0.000001374300393
2 0.000036692206179
3 0.000010865791023
4 0.032847308815776
5 0.64805203032266
6 0.000774800498809
7 -0.006290923044660
8 -0.12408435244353
9 -0.000154599029842
10 -0.020777472924058
11 0.020789743704359
12 -0.000012270780300
13 0.001679656006623
14 -0.000378370403097
15 -0.006730368050779
16 0.63601875539467
17 -0.18554425627180
18 -0.000767138772908
19 -0.022425642221895
20 0.002389394745617
21 -0.31217856269765
22 0.091072318072888
23 0.015275787831873
24 0.003554150110335
25 -0.001158825910945
26 -0.32385290786987
27 0.094474570502399
28 -0.015239399503952
29 0.004453891610153
30 -0.001250710514220
31 0.000029664654083
32 -0.000011728037422
33 0.000040098283203
34 0.000808708643348
35 -0.000002796744522
 Sym=      4.1
 Ene=      -0.5809
 Spin= Alpha
 Occup=    2.000000
1 -0.000001019628881
2 0.000004055653657
3 0.000007629306404
4 0.64805329128438
5 -0.032852189482751
6 0.000960679488923
7 -0.12406320080218
8 0.006287657455365
9 -0.000190423480214
10 -0.001431534102739
11 0.001447475772762
12 -0.000015941670023
13 -0.023994776657101
14 -0.006790291891795
15 0.000306980596081
16 -0.006733766487996
17 0.001964735873139
18 0.012813257147299
19 -0.000275664180030
20 -0.000006477038393
21 0.55417535196700
22 -0.16165214417092
23 -0.013163734884559
24 0.015759308782413
25 0.002102422927439
26 -0.54744379134145
27 0.15968364363313
28 -0.014055353689076
29 -0.014753337306928
30 -0.002120897206224
31 0.000035697772008
32 -0.000014452435348
33 0.000807378584534
34 -0.000041821243050
35 -0.000003283510835
 Sym=      5.1
 Ene=      -0.2644
 Spin= Alpha
 Occup=    1.598149
1 -0.001710527136748
2 0.020818956397729
3 0.027743913239473
4 -0.000925873793837
5 -0.000673217496214
6 0.54782254943251
7 -0.000085841557482
8 -0.000061965063873
9 0.063162594254769
10 -0.005551381039835
11 -0.005556294335405
12 0.011107675375240
13 0.000002368580908
14 -0.000018690587995
15 -0.000014777949232
16 -0.047931361775671
17 0.012629615495776
18 0.000050175822897
19 0.001754448113767
20 0.012425684309247
21 -0.047905124004629
22 0.012630543591026
23 0.001475289474987
24 -0.000960620409109
25 0.012423581486304
26 -0.047799153457159
27 0.012632013494297
28 -0.001582902954724
29 -0.000835381541640
30 0.012416596950378
31 0.63022933759388
32 0.047122330659112
33 0.000000813721526
34 0.000000553812715
35 -0.000608191269207
 Sym=      6.1
 Ene=       0.0051
 Spin= Alpha
 Occup=    0.401851
1 0.003541100869887
2 -0.10153970977125
3 -0.055682175687052
4 0.001062987578952
5 0.000772745298160
6 -0.71190579260274
7 0.000122232667212
8 0.000087710345684
9 -0.079442757064965
10 0.004141789927478
11 0.004140708317583
12 -0.008282498245061
13 0.000000978799616
14 0.000022156585472
15 0.000017610628258
16 0.017515283236745
17 -0.005541397103015
18 0.000036673287645
19 0.000412078886599
20 -0.014279089299074
21 0.017537548949352
22 -0.005543884568859
23 0.000355375231669
24 -0.000196660717978
25 -0.014277382935476
26 0.017683550940822
27 -0.005551327541360
28 -0.000322277998680
29 -0.000165293140256
30 -0.014273645400512
31 0.85171353148526
32 -0.085198590882928
33 0.000001070609717
34 0.000000723206839
35 0.001910621792400
 Sym=      7.1
 Ene=       0.2013
 Spin= Alpha
 Occup=    0.000000
1 0.082547768263354
2 -0.20198023118695
3 -2.10418438768027
4 -0.000063816254630
5 -0.000044886021616
6 0.082641555785803
7 -0.000065993522402
8 0.000003307020461
9 0.086630975485208
10 -0.012085294029442
11 -0.012092692578110
12 0.024177986607552
13 -0.000001980170671
14 -0.000072117170977
15 -0.000053502499014
16 0.061868406270975
17 1.02062882359855
18 -0.000697236149393
19 -0.017243669022191
20 0.004180079189903
21 0.061822503126068
22 1.02068808875907
23 -0.014590445728178
24 0.009210326429468
25 0.004188291534280
26 0.061744562418663
27 1.02105662991801
28 0.015270182894826
29 0.008014625343326
30 0.004236569044467
31 -0.099724857181073
32 0.005812430841565
33 0.000010492968894
34 0.000007206958957
35 -0.001640604081455
 Sym=      8.1
 Ene=       0.2668
 Spin= Alpha
 Occup=    0.000000
1 0.000011131285537
2 -0.000020860849606
3 -0.000195088640263
4 -0.16707703020411
5 -0.41706461433488
6 -0.000696259169560
7 -0.45830163266998
8 -1.14420019307133
9 -0.002088164269271
10 0.019177533026119
11 -0.019195376586921
12 0.000017843560801
13 0.005897887160764
14 0.003486686463198
15 0.008586779489383
16 0.027085826283735
17 2.05361920753834
18 -0.002270112049498
19 -0.025431403632214
20 0.000841475293610
21 -0.005137438387546
22 -0.39575742497147
23 0.002198095973638
24 -0.005721753584973
25 -0.000166658637125
26 -0.021813599165456
27 -1.65770541787233
28 -0.017101898792576
29 -0.011712668155644
30 -0.000739724772622
31 -0.000124050137370
32 0.000040189629746
33 0.001126645980645
34 0.002862823240780
35 -0.000000863728526
 Sym=      9.1
 Ene=       0.2668
 Spin= Alpha
 Occup=    0.000000
1 0.000010655724615
2 0.000011335857333
3 -0.000188311508658
4 -0.41708132274322
5 0.16707236989309
6 -0.000437326329760
7 -1.14405635555676
8 0.45834797812821
9 -0.001314769428684
10 -0.005142194492341
11 0.005124932980958
12 0.000017261511383
13 0.022147727887595
14 0.008616272017496
15 -0.003404678193389
16 -0.009583527160186
17 -0.72856098548385
18 -0.003153436177518
19 0.009180966230028
20 -0.000300725239430
21 0.028290399929937
22 2.14272058204582
23 -0.022856505433526
24 0.013646582577078
25 0.000890987785563
26 -0.018687289860215
27 -1.41392114156203
28 -0.016863386071633
29 -0.005655332560368
30 -0.000630932068758
31 -0.000087270641258
32 0.000029889633876
33 0.002848052052343
34 -0.001161068751545
35 -0.000001570935855
 Sym=     10.1
 Ene=       0.6053
 Spin= Alpha
 Occup=    0.000000
1 0.000025625642997
2 0.000014620701338
3 -0.000273949112261
4 -0.45062051631148
5 -0.000225849614448
6 -0.000391596697311
7 1.67043613587026
8 0.000835418497875
9 0.002575073489633
10 0.012589979141154
11 -0.012566492423125
12 -0.000023486718029
13 0.11999371299274
14 0.017093528755807
15 0.000182408278783
16 -0.053145533101697
17 0.017297262969085
18 0.066969618541957
19 -0.002860978234369
20 0.000349130335428
21 -1.11366682191062
22 0.36205830338757
23 0.015438989027138
24 0.032650396200993
25 0.005094881955055
26 1.16770306258183
27 -0.37958243344837
28 0.010355802080998
29 -0.029743485680544
30 -0.005279680708586
31 0.001085514755232
32 -0.001610837662265
33 0.038079202911609
34 0.000032809575458
35 -0.000064540210253
 Sym=     11.1
 Ene=       0.6054
 Spin= Alpha
 Occup=    0.000000
1 -0.000020054634845
2 -0.000060512106494
3 -0.000022469492153
4 0.000224065859787
5 -0.45064955696167
6 -0.000159488148467
7 -0.000833004823835
8 1.67099069579485
9 0.001617467734860
10 0.10393920604209
11 -0.10398793121958
12 0.000048725177498
13 -0.014581761001851
14 0.000165331268395
15 0.016777295483247
16 -1.31731307329980
17 0.42780851032084
18 -0.002938630591331
19 -0.005120985336002
20 0.005952591987129
21 0.70475000988915
22 -0.22861330033525
23 0.032668913664576
24 0.046454905758765
25 -0.003067833775289
26 0.61217121905729
27 -0.19855877806471
28 -0.029777075674661
29 0.051502675296227
30 -0.002741653714965
31 0.000400040954280
32 -0.000722489393563
33 -0.000005198843552
34 0.038061900153599
35 -0.000057144296139
 Sym=     12.1
 Ene=       0.6591
 Spin= Alpha
 Occup=    0.000000
1 -0.015357425243309
2 0.11180318287439
3 0.16551221286381
4 -0.000620066212673
5 -0.000272062518381
6 0.37743606825740
7 0.001689473690253
8 0.000495979838294
9 -0.81912094926728
10 -0.064686220944847
11 -0.064880250621795
12 0.12956647156664
13 0.000147085579985
14 -0.000327388735392
15 -0.000246121410472
16 -0.53270701770802
17 0.27657519898581
18 -0.002271785903908
19 -0.057514758445799
20 0.029077668365310
21 -0.53320064164811
22 0.27652854631227
23 -0.048611729628609
24 0.030746069312392
25 0.029089700595380
26 -0.53198171907532
27 0.27611834588490
28 0.050787424599742
29 0.026652187984663
30 0.029121227189445
31 -1.67726235336895
32 2.03412468948929
33 0.000014186351216
34 -0.000006265463181
35 0.015371001162751
 Sym=     13.1
 Ene=       0.7384
 Spin= Alpha
 Occup=    0.000000
1 0.10689863142979
2 0.22063049017305
3 -0.69936631002353
4 0.001495865644954
5 0.000959614752357
6 -0.83982350584145
7 -0.001573981446237
8 -0.000673825727713
9 0.90541295017942
10 0.079500252281743
11 0.079319219491962
12 -0.15881947177371
13 0.000127516213736
14 0.000449874879794
15 0.000332278981885
16 0.72027259349960
17 -0.50900639013386
18 0.002221699324471
19 0.053375165032254
20 -0.013564099229425
21 0.72066595503972
22 -0.50890068536404
23 0.045205091477586
24 -0.028446993468306
25 -0.013610470284854
26 0.72135515572622
27 -0.50951860845642
28 -0.047363970311055
29 -0.024845863771570
30 -0.013848494605017
31 -1.30701061792768
32 1.43832977331681
33 -0.000029791551734
34 -0.000011843854800
35 0.040839729835455
 Sym=     14.1
 Ene=       0.7870
 Spin= Alpha
 Occup=    0.000000
1 0.053092962211252
2 0.018953552263369
3 -0.066951137945784
4 -0.001625799495160
5 -0.001325844045058
6 1.15976077563797
7 0.001774748356586
8 0.001733492968457
9 -1.45258343230672
10 0.097529908328082
11 0.097655156317306
12 -0.19518506464539
13 -0.000032272567640
14 0.000560040234042
15 0.000412810985526
16 0.69385111354773
17 -0.65166118578538
18 0.003865169945242
19 0.098684021285040
20 0.040339976084315
21 0.69392086911612
22 -0.65128653580793
23 0.083415846626806
24 -0.052843550332608
25 0.040279473261036
26 0.69339110286163
27 -0.65093183129920
28 -0.087537955221274
29 -0.045981924451038
30 0.039942306700428
31 -0.15399441841011
32 0.54752686038056
33 -0.000049742277528
34 -0.000028431809641
35 0.15130392809181
 Sym=     15.1
 Ene=       0.8925
 Spin= Alpha
 Occup=    0.000000
1 0.000052268266648
2 0.000186597040101
3 -0.000355805709697
4 -1.23664124587703
5 -0.089275153720624
6 -0.002127520330465
7 2.29797297480968
8 0.16589350065153
9 0.003813825542023
10 -0.056043367631661
11 0.056221707316866
12 -0.000178339685205
13 -0.33337165346063
14 -0.053758643540012
15 -0.004298637360859
16 0.067579364043990
17 -0.22676853197393
18 -0.071246775482610
19 0.034854702872581
20 -0.003449340102385
21 0.48505980733390
22 -1.63019846803498
23 0.17116961034978
24 -0.15950783990222
25 -0.024244057563663
26 -0.55224360983503
27 1.85670669922927
28 0.21819495476796
29 0.14762010517600
30 0.028247848513507
31 -0.000831133550466
32 0.000907208781238
33 0.019853319743580
34 0.001476470267273
35 -0.000005693527914
 Sym=     16.1
 Ene=       0.8925
 Spin= Alpha
 Occup=    0.000000
1 0.000016022653803
2 0.000067754517952
3 -0.000164807808335
4 0.089289830248161
5 -1.23664702038906
6 -0.001357462369393
7 -0.16593201361704
8 2.29811388301307
9 0.002421767577941
10 -0.28874347616019
11 0.28881365542925
12 -0.000070179269060
13 0.064975461356772
14 0.003394429602204
15 -0.052797956454555
16 0.59892289200004
17 -2.01320110368112
18 0.019576863687260
19 0.28338738986736
20 -0.029693775136305
21 -0.35789734017483
22 1.20298695070217
23 -0.17485746586342
24 0.040946333366431
25 0.017729759268903
26 -0.24110728325485
27 0.81034604827605
28 0.13230914499599
29 -0.006161902031118
30 0.012300836640733
31 -0.000468625460821
32 0.000483142549472
33 -0.001382712115759
34 0.019748941162517
35 -0.000023576134871
 Sym=     17.1
 Ene=       1.0519
 Spin= Alpha
 Occup=    0.000000
1 -0.76289384758146
2 -3.49008073135479
3 5.87838623377239
4 -0.000023750974795
5 0.000019889391097
6 0.002331201066935
7 0.000222555197862
8 -0.000026937384688
9 -0.13968806947524
10 0.016052989052927
11 0.016161409049421
12 -0.032214398102348
13 -0.000005863053382
14 0.000170087032996
15 0.000115083390049
16 -0.099237214791288
17 -0.88279548709146
18 0.007335266174912
19 0.18193520050220
20 -0.033917152254567
21 -0.099266254369478
22 -0.88286738090505
23 0.15391454110017
24 -0.097229492516030
25 -0.034001026329150
26 -0.099265680911280
27 -0.88288522400957
28 -0.16109224248792
29 -0.084592768095849
30 -0.034533084836960
31 -0.16346955058034
32 0.085336896720123
33 -0.000027797984296
34 -0.000022616605845
35 -0.19397206109241
 Sym=     18.1
 Ene=       1.2045
 Spin= Alpha
 Occup=    0.000000
1 0.000120686035471
2 0.000536560859935
3 -0.000953258958169
4 0.000735349717124
5 0.029637810891709
6 0.000066533961168
7 0.000925438129687
8 0.038933540953307
9 0.000084438501813
10 -0.086753312664278
11 0.085431656271847
12 0.001321656392431
13 0.008614013567487
14 0.014951709743045
15 0.61634373443960
16 -0.060400648287076
17 0.021500327707945
18 0.001588929872464
19 0.020788603004169
20 0.39946910735333
21 0.031086847158289
22 -0.010804699891408
23 -0.049375891716539
24 -0.057803619277996
25 -0.20528284587889
26 0.029464238275117
27 -0.010279604910903
28 0.045333439481597
29 -0.063090800152586
30 -0.19438093485492
31 0.000239085816726
32 -0.000355225312492
33 0.001327327440774
34 0.055143829773987
35 -0.000294697748851
 Sym=     19.1
 Ene=       1.2046
 Spin= Alpha
 Occup=    0.000000
1 0.000171487767251
2 0.000761603023528
3 -0.001339849446410
4 0.029638956587861
5 -0.000717300047998
6 0.000060520348705
7 0.038871556140086
8 -0.000981249581392
9 0.000118198035677
10 -0.010022712577247
11 0.008326125966645
12 0.001696586610602
13 -0.10075894693959
14 0.61611865877728
15 -0.015251610212939
16 -0.000870793786772
17 0.000552321151960
18 -0.088017014678482
19 0.003814854222457
20 0.006070205102891
21 -0.051787546703982
22 0.018537613789394
23 -0.009248274936342
24 -0.048391274574003
25 0.34276267849387
26 0.052876258621095
27 -0.018518612277715
28 -0.002820667983633
29 0.047028838796732
30 -0.34902152653447
31 0.000319404693874
32 -0.000467824983368
33 0.055107314304082
34 -0.001374545372098
35 -0.000369704605188
 Sym=     20.1
 Ene=       1.5268
 Spin= Alpha
 Occup=    0.000000
1 -0.000084725590019
2 -0.000369258000968
3 0.000661743774495
4 0.012019110078957
5 0.10814220234228
6 0.000126051491979
7 0.009166358148359