[Molden Format]
[Molpro variables]
_NUMVAR=  1038.000000000000    
_AVOGAD= 0.6022140760000000E+24
_BOLTZ= 0.1380649000000000E-22
_CLIGHTSI=  299792458.0000000    
_JOULE= 0.4359744722207100E-17
_JPCAL=  4.184000000000000    
_PLANCK= 0.6626070150000000E-33
_BOHR= 0.5291772109030000E-10
_ECHARG= 0.1602176634000000E-18
_ENULL= 0.8854187812800001E-11
_MU= 0.1660539066600000E-26
_EMASS= 0.9109383701500001E-30
_AMU2AU=  1822.888486217313    
_CLIGHT=  29979245800.00000    
_EV= 0.3674932217565494E-01
_KJOULE= 0.3808798847133432E-03
_KJOULE/MOL= 0.3808798847133432E-03
_CM= 0.4556335252912009E-05
_CM-1= 0.4556335252912009E-05
_DEB2SI= 0.3335640951981520E-29
_KCAL= 0.1593601437640628E-02
_KCAL/MOL= 0.1593601437640628E-02
_KELVIN= 0.3166811563455608E-05
_HERTZ= 0.1519829846057038E-15
_HZ= 0.1519829846057038E-15
_TOA= 0.5291772109030000    
_TOANG= 0.5291772109030000    
_TORAD= 0.1745329251994330E-01
_TOCM=  219474.6313631965    
_TODEBYE=  2.541746473194078    
_TOE= 0.4803204712570263E-09
_TOEV=  27.21138624598803    
_TOHERTZ=  6579683920501656.    
_TOHZ=  6579683920501656.    
_TOK=  315775.0248040668    
_TOKCAL=  627.5094740630558    
_TOKELVIN=  315775.0248040668    
_TOKJ=  2625.499639479825    
_TOKJOULE=  2625.499639479825    
_TOKG= 0.1660539066600000E-26
_ANG=  1.889726124625770    
_ANGSTROM=  1.889726124625770    
_RPAREF=  0.000000000000000    
_RPADISS=  0.000000000000000    
_IGNORE_UNDEF=  2.000000000000000    
_STRICTCHECK=  0.000000000000000    
!SEWARD=  0.000000000000000    
!MULTI=  0.000000000000000    
!DFMULTI=  0.000000000000000    
_SEW_ONEEL=  0.000000000000000    
_CPPDONE=FALSE
_DKROLL_DONE=  0.000000000000000    
_FNUC_DONE=  0.000000000000000    
_FOCKDONE=  0.000000000000000    
_GRADONE=FALSE
_HESSDONE=FALSE
_INTDONE=TRUE
_SCFDONE=FALSE
_MODUL_BLOCK=FALSE
_MODUL_CUDA=FALSE
_MODUL_SLATER=FALSE
_MODUL_MRCC=TRUE
_MODUL_NBO6=FALSE
_MODUL_NECI=FALSE
_MODUL_AIMS=TRUE
_MODUL_GECCO=FALSE
_ISWINDOWS=FALSE
_MRCC_EXEC=/software/cinetica/mrcc/bin/dmrcc
_FITC_AO_SAVED=FALSE
_FITC_MO_SAVED=FALSE
_SHARED_FS=TRUE
_LSTYP=SEWARD
_INTYP=INTS
_GEOMTYP=ZMAT
_GRADTYP=ALASKA
_DIRECT=FALSE
_DKHO= -1.000000000000000    
_FNUC=  0.000000000000000    
_SYNCM=  0.000000000000000    
_BASIS=CC-PVDZ
_ZORIENT=  1.000000000000000    
!ZORIENT=  0.000000000000000    
_NELEC=  10.00000000000000    
!SPIN=  0.000000000000000    
_QSDSTEP=  0.000000000000000    
_QSDIRC=  0.000000000000000    
_PROGRAM=RS2
_CPUSTEP= 0.9999999999999987E-01
_SYSSTEP= 0.3999999999999992E-01
_WALLSTEP= 0.2800000000000000    
!DFMP2=  0.000000000000000    
!DFHFENERG=  0.000000000000000    
!SCSGRD=  0.000000000000000    
_CPUTOT= 0.9500000000000000    
_DMX= 0.1408596118616721E-03
_DMY= 0.8564239606513244E-04
_DMZ=-0.7189171426858509E-01
_EMP2= -40.19582232546448    
_ENERGR= -40.06132221584552    
_ENERGU= -40.18748547841959    
_ENERGY= -40.19582232546448    
_ENERGY_METHOD=RS2
_ENERGY_BASIS=cc-pVDZ
_GEOMETRY_METHOD=
_GEOMETRY_BASIS=
_ENERGY_AVRG= -40.06132221584558    
_ENUC=  11.14428677667346    
_GRADMETHOD=  9.000000000000000    
_NMRMETHOD=  0.000000000000000    
_NMRMAGNET=  0.000000000000000    
!GRID_FREEZE= -1.000000000000000    
!NEESE_INDEX=  0.000000000000000    
_ITERATIONS=  5.000000000000000    
_LASTNELEC=  2.000000000000000    
_LASTSPIN=  0.000000000000000    
_LASTSYM=  1.000000000000000    
_MPP_PROG=  1.000000000000000    
_MSNSTATES=  0.000000000000000    
_RS2PHASE=  0.000000000000000    
_IPROC_MPP=  0.000000000000000    
_IPROC_MPPX=  0.000000000000000    
_NPROC_MPP=  4.000000000000000    
_NPROC_MPPX=  4.000000000000000    
_NPROC_SMP=  1.000000000000000    
_NUMSTEP=  0.000000000000000    
_ORBITAL=  2140.200000000000    
_PI=  3.141592653589793    
!MCACT=  2.000000000000000    
!MCCLOSED=  4.000000000000000    
!MCFREEZE=  0.000000000000000    
!MCMS2=  0.000000000000000    
!MCNEL=  2.000000000000000    
!MCNSTSYM=  1.000000000000000    
!MCSTATE=  1.000000000000000    
!MCSYM=  1.000000000000000    
!MCWEIGHT=  1.000000000000000    
_SEIG_MIN= 0.1502576228586507E-01
_SEWPROP=TRUE
_STATUS=  1.000000000000000    
_SYSTOT= 0.3799999999999999    
_VERSION=  2022002.000000000    
_WALLTOT=  1.960000000000000    
_DATE=03-Jun-23
_LASTORB=MCSCF
_OUTPUT=/home/chimica2/cavallotti/qm/barrierless/vrc_autom/folders/ch3+h/dist_3.2/molpro.out
_PGROUP=C1
_TIME=08:59:58
_LIBMOL=/software/cinetica/molpro_2022.2/lib/
_VIGRDC=  0.000000000000000    
!VIBCNT=  0.000000000000000    
!RGHFCNT=  0.000000000000000    
!SURFREC=  0.000000000000000    
!XSURFREC=  0.000000000000000    
!XPOLYREC=  0.000000000000000    
!ROTREC=  0.000000000000000    
!POLYREC=  0.000000000000000    
!DIPREC=  0.000000000000000    
!DIP4DREC=  0.000000000000000    
!DIPROT=  0.000000000000000    
!DIP4DROT=  0.000000000000000    
!PTREC=  0.000000000000000    
!PT4DREC=  0.000000000000000    
!VSCFREC=  0.000000000000000    
!VCIREC=  0.000000000000000    
!PVCIREC=  0.000000000000000    
!VMP2REC=  0.000000000000000    
!VMCSCFREC=  0.000000000000000    
!VMRCIREC=  0.000000000000000    
!VIBSTATEREC=  0.000000000000000    
!VIBSTATECNT=  0.000000000000000    
!VIBINFO=  0.000000000000000    
!GAREC=  0.000000000000000    
!MCORB=  21402.00000000000    
!DEFCORE=  1.000000000000000    
!SCORE=  0.000000000000000    
!NEWMOL= -1.000000000000000    
!NEWSYM= -1.000000000000000    
_SLFILES=slscratch
_NGSSTO=  9.000000000000000    
_SIN=SIN
_COS=COS
_TAN=TAN
_ACOS=ACOS
_ASIN=ASIN
_ATAN=ATAN
_COSH=COSH
_SINH=SINH
_TANH=TANH
_ABS=ABS
_MOD=MOD
_ERF=ERF
_REFC=REFC
_ERFC=ERFC
_HYPOT=HYPOT
_J0=J0
_J1=J1
_JN=JN
_GAMMA=GAMMA
_LGAMMA=LGAMMA
_Y0=Y0
_Y1=Y1
_YN=YN
_EXP=EXP
_LOG=LOG
_LOG10=LOG10
_SQRT=SQRT
_INT=INT
_NINT=NINT
_MAX=MAX
_MIN=MIN
_COSMO=  0.000000000000000    
_COSMOIT=  0.000000000000000    
_COSMOES=  0.000000000000000    
_COSMOEDS=  0.000000000000000    
_COSMOEC=  0.000000000000000    
_COSMOEDCORR=  0.000000000000000    
_FEPSI=  1.000000000000000    
_SL_IsMM=  0.000000000000000    
_SL_NSYM=  1.000000000000000    
_SL_System_BitSw=  0.000000000000000    
_SL_Unique_atoms=  0.000000000000000    
_SL_GRAD=  0.000000000000000    
_SL_MAXUPD_Hess=  5.000000000000000    
_SL_N_PRINT_COD=  5.000000000000000    
_SL_PRINT_CODES=  0.000000000000000    
_SL_BasType=  0.000000000000000    
_SL_Energy_Pred=  0.000000000000000    
_SL_New_Coords=  0.000000000000000    
_SL_Total_Nuclea=  0.000000000000000    
_SL_Highest_Mltp=  0.000000000000000    
_SL_Ref_Geom=  0.000000000000000    
_SL_Symmetry_ope=  1.000000000000000    
_SL_agrad=  0.000000000000000    
_SL_GrdMax=  0.000000000000000    
_SL_GrdNorm=  0.000000000000000    
_SL_GrdRMS=  0.000000000000000    
_SL_Hss_Q=  0.000000000000000    
_SL_Hss_X=  0.000000000000000    
_SL_BMxOld=  0.000000000000000    
_SL_KtB=  0.000000000000000    
_SL_TROld=  0.000000000000000    
_SL_No_of_Intern=  0.000000000000000    
_SL_Hess=  0.000000000000000    
_SL_K=  0.000000000000000    
!LATTICE= -1.000000000000000    
!NEWLATTICE=  0.000000000000000    
!LATGRAD_VAR=FALSE
!SEW_LATTICE=  1.000000000000000    
!AIC_ONEEL=  0.000000000000000    
!LOCAL=  0.000000000000000    
!SAVEDOM= -1.000000000000000    
!RESTDOM= -1.000000000000000    
!SAVEDOM_HF= -1.000000000000000    
!RESTDOM_HF= -1.000000000000000    
!HESSREC=  0.000000000000000    
!FREQREC=  0.000000000000000    
!NMODREC=  0.000000000000000    
!GTASKS=  0.000000000000000    
!HTASKS=  0.000000000000000    
!SAVEDOM_EOM= -1.000000000000000    
!RESTDOM_EOM= -1.000000000000000    
!GRADSTATE= -1.000000000000000    
!DEBUG=  0.000000000000000    
!CFIT_CPHF=  0.000000000000000    
!RDOMAUX_CPHF=  0.000000000000000    
!THRAO_CPHF= 0.1000000000000000E-11
!THRMO_CPHF= 0.1000000000000000E-11
!THROV_CPHF= 0.1000000000000000E-11
!THRSW_CPHF= 0.1000000000000000E-11
!THRPROD_CPHF= 0.1000000000000000E-11
!THRAOPR_CPHF= 0.1000000000000000E-11
!CFIT_SCFGRD=  0.000000000000000    
!RDOMAUX_SCFGRD=  0.000000000000000    
!THRAO_SCFGRD= 0.1000000000000000E-11
!THRMO_SCFGRD= 0.1000000000000000E-11
!THROV_SCFGRD= 0.1000000000000000E-11
!THRSW_SCFGRD= 0.1000000000000000E-11
!THRPROD_SCFGRD= 0.1000000000000000E-11
!THRAOPR_SCFGRD= 0.1000000000000000E-11
!LOCFIT_SCF=  0.000000000000000    
!LOCFIT_MP2=  0.000000000000000    
_RIDOM=  0.000000000000000    
!CC2_METHOD=  0.000000000000000    
_BASIS2006=FALSE
_SVDDEL= -1.000000000000000    
_SVDDELA= -1.000000000000000    
_SVDDELP= -1.000000000000000    
_SVDDELF= -1.000000000000000    
_SVDDELS= -1.000000000000000    
_SVDDEL_ABS= -1.000000000000000    
_SVDDELA_ABS= -1.000000000000000    
_SVDDELP_ABS= -1.000000000000000    
_SVDDELF_ABS= -1.000000000000000    
_SVDDELS_ABS= -1.000000000000000    
_MAXBASIS=  0.000000000000000    
!OPT_CONICAL=  0.000000000000000    
!CLEARSP_JGRID=  0.000000000000000    
_GRDHYBR=  0.000000000000000    
_STATEGRAD=  1.000000000000000    
_4EXT_NDISKS=  1.000000000000000    
!EMBEDFLAG=  1.000000000000000    
!EMBED=FALSE
!EMBED_F12=FALSE
!EMBEDNUC=  0.000000000000000    
_EMBEDENERGY=  0.000000000000000    
!EMBED_DFC=FALSE
!NUM_VOIDS=  0.000000000000000    
_IBODY=  0.000000000000000    
_EMBE_CORR=  0.000000000000000    
!EMBED_PROJ=FALSE
!EMB_PROJ_ZMU=  1000000.000000000    
!CORRECTION_HF=  0.000000000000000    
!EMBED_AORB=  0.000000000000000    
!EMBED_NACORR=  0.000000000000000    
!EMBED_MP2=FALSE
!EMBED_TRUNC_PERTURBATION=FALSE
!EMBED_FROZEN=  0.000000000000000    
!EMBED_ACTIVE=  0.000000000000000    
_CHANGE_BASIS=FALSE
_RESTORE_BASIS=FALSE
_FIX_EMBED_GUESS=FALSE
_EMBED_SCF=FALSE
_HUZINAGA_T=FALSE
_HUZINAGA_F=FALSE
_HUZINAGA=FALSE
_HUZINAGA_CORRECT=FALSE
!FASTLATGRAD=  1.000000000000000    
!FASTVLAMBDA= -1.000000000000000    
!IFORCE= -1.000000000000000    
!USESYM= -1.000000000000000    
_SINDEX=  0.000000000000000    
_AVDOM_OSV=  0.000000000000000    
_AVDOM_PNO=  0.000000000000000    
_AVDOM_PAO=  0.000000000000000    
_AVDOM_LMO=  0.000000000000000    
_CC2OSV_FLAG=  0.000000000000000    
_EOMCCSD_CONV=FALSE
_TMADC2_FLAG=FALSE
_PROPADC2_FLAG=FALSE
_LEN_VirQ=  0.000000000000000    
_GRDCC2LR_FLAG=FALSE
_GRDADC2_FLAG=FALSE
_DMX_CC=-0.2613366418458440E-02
_DMY_CC=-0.1854495330915418E-02
_DMZ_CC=  3.089323745816975    
_DMX_NUC=-0.1696469000999875E-02
_DMY_NUC=-0.1663084323999976E-02
_DMZ_NUC=  2.221492886342000    
_RO_VGLOBAL=  0.000000000000000    
_OPT=FALSE
_FREQ=FALSE
_HESS=FALSE
_CMRCC_callName=EMPTY
_CMRCC_callCount=  0.000000000000000    
_GECCO_CIROOT=  1.000000000000000    
_SYM_CATION=  0.000000000000000    
_MON_A=FALSE
_MON_B=FALSE
R1=  1.078300000000000    
R2=  1.078300000000000    
R3=  1.078300000000000    
A2=  119.9987000000000    
A3=  119.9981000000000    
D3=  182.2993000000000    
DH1=  90.94790000000000    
ANG1=  90.48699999999999    
BB=  3.200000000000000    
GX1= 0.2867408585402299E-03
GY1= 0.2810981080452104E-03
GZ1=-0.3754815305229795    
GX2= 0.7207778615649295E-01
GY2=  2.036645564099733    
GZ2=-0.3913935056479624    
GX3=  1.727785988355383    
GY3= -1.080246105497283    
GZ3=-0.3953484793992117    
GX4= -1.798726054247647    
GY4=-0.9560206431419861    
GZ4=-0.4105147464379553    
GX5=-0.4554634417777583E-02
GY5=-0.3728488432794476E-02
GZ5=  5.671638800964967    
CBSEN= -40.19582232546448    
[Atoms] Angs
C     1    6         0.0001517367        0.0001487507       -0.1986962691
H     2    1         0.0381419218        1.0777464192       -0.2071165237
H     3    1         0.9143049704       -0.5716416212       -0.2092094057
H     4    1        -0.9518448366       -0.5059043375       -0.2172350486
H     5    1        -0.0024102087       -0.0019730311        3.0013020019
[GTO]
   1 0
 s    9  1.00
  0.6665000000D+04  0.6920001793D-03
  0.1000000000D+04  0.5329001381D-02
  0.2280000000D+03  0.2707700701D-01
  0.6471000000D+02  0.1017180264D+00
  0.2106000000D+02  0.2747400712D+00
  0.7495000000D+01  0.4485641162D+00
  0.2797000000D+01  0.2850740738D+00
  0.5215000000D+00  0.1520400394D-01
  0.1596000000D+00 -0.3191000827D-02
 s    9  1.00
  0.6665000000D+04 -0.1460000642D-03
  0.1000000000D+04 -0.1154000508D-02
  0.2280000000D+03 -0.5725002519D-02
  0.6471000000D+02 -0.2331201026D-01
  0.2106000000D+02 -0.6395502813D-01
  0.7495000000D+01 -0.1499810660D+00
  0.2797000000D+01 -0.1272620560D+00
  0.5215000000D+00  0.5445292395D+00
  0.1596000000D+00  0.5804962554D+00
 s    9  1.00
  0.6665000000D+04  0.0000000000D+00
  0.1000000000D+04  0.0000000000D+00
  0.2280000000D+03  0.0000000000D+00
  0.6471000000D+02  0.0000000000D+00
  0.2106000000D+02  0.0000000000D+00
  0.7495000000D+01  0.0000000000D+00
  0.2797000000D+01  0.0000000000D+00
  0.5215000000D+00  0.0000000000D+00
  0.1596000000D+00  0.1000000000D+01
 p    4  1.00
  0.9439000000D+01  0.3810902127D-01
  0.2002000000D+01  0.2094801169D+00
  0.5456000000D+00  0.5085572839D+00
  0.1517000000D+00  0.4688422617D+00
 p    4  1.00
  0.9439000000D+01  0.0000000000D+00
  0.2002000000D+01  0.0000000000D+00
  0.5456000000D+00  0.0000000000D+00
  0.1517000000D+00  0.1000000000D+01
 d    1  1.00
  0.5500000000D+00  0.1000000000D+01
  
   2 0
 s    4  1.00
  0.1301000000D+02  0.1968498999D-01
  0.1962000000D+01  0.1379769298D+00
  0.4446000000D+00  0.4781477569D+00
  0.1220000000D+00  0.5012397451D+00
 s    4  1.00
  0.1301000000D+02  0.0000000000D+00
  0.1962000000D+01  0.0000000000D+00
  0.4446000000D+00  0.0000000000D+00
  0.1220000000D+00  0.1000000000D+01
 p    1  1.00
  0.7270000000D+00  0.1000000000D+01
  
   3 0
 s    4  1.00
  0.1301000000D+02  0.1968498999D-01
  0.1962000000D+01  0.1379769298D+00
  0.4446000000D+00  0.4781477569D+00
  0.1220000000D+00  0.5012397451D+00
 s    4  1.00
  0.1301000000D+02  0.0000000000D+00
  0.1962000000D+01  0.0000000000D+00
  0.4446000000D+00  0.0000000000D+00
  0.1220000000D+00  0.1000000000D+01
 p    1  1.00
  0.7270000000D+00  0.1000000000D+01
  
   4 0
 s    4  1.00
  0.1301000000D+02  0.1968498999D-01
  0.1962000000D+01  0.1379769298D+00
  0.4446000000D+00  0.4781477569D+00
  0.1220000000D+00  0.5012397451D+00
 s    4  1.00
  0.1301000000D+02  0.0000000000D+00
  0.1962000000D+01  0.0000000000D+00
  0.4446000000D+00  0.0000000000D+00
  0.1220000000D+00  0.1000000000D+01
 p    1  1.00
  0.7270000000D+00  0.1000000000D+01
  
   5 0
 s    4  1.00
  0.1301000000D+02  0.1968498999D-01
  0.1962000000D+01  0.1379769298D+00
  0.4446000000D+00  0.4781477569D+00
  0.1220000000D+00  0.5012397451D+00
 s    4  1.00
  0.1301000000D+02  0.0000000000D+00
  0.1962000000D+01  0.0000000000D+00
  0.4446000000D+00  0.0000000000D+00
  0.1220000000D+00  0.1000000000D+01
 p    1  1.00
  0.7270000000D+00  0.1000000000D+01


[MO]
 Sym=      1.1
 Ene=     -11.2338
 Spin= Alpha
 Occup=    2.000000
1 1.00137169113425
2 0.007946239881362
3 -0.007964058071379
4 -0.000000026790321
5 -0.000000093946317
6 -0.000023978661360
7 0.000000110177854
8 0.000000553223537
9 -0.000014603214645
10 0.000366515272580
11 0.000367729163357
12 -0.000734244435936
13 0.000000066611319
14 0.000005579447847
15 0.000004569818957
16 -0.000679932776834
17 0.001582382742797
18 0.000018301127563
19 0.000518464670049
20 -0.000007164005401
21 -0.000678849691288
22 0.001582093620245
23 0.000439731341207
24 -0.000274714836410
25 -0.000008154784634
26 -0.000679205736050
27 0.001582529097948
28 -0.000457911457874
29 -0.000243120137959
30 -0.000012000956928
31 -0.000154830406003
32 0.000236325353609
33 -0.000000045558104
34 -0.000000036814090
35 -0.000024562441615
 Sym=      2.1
 Ene=      -0.9015
 Spin= Alpha
 Occup=    2.000000
1 -0.027928622217824
2 0.75646555364407
3 -0.14652856360872
4 0.000021268414453
5 -0.000023171004815
6 -0.006303994935500
7 -0.000003077470101
8 0.000023090464973
9 0.001340280459517
10 0.001714013468675
11 0.001713284570846
12 -0.003427298039521
13 -0.000000384960337
14 0.000025800559038
15 0.000021127442653
16 0.35053798677105
17 -0.14563924730564
18 -0.001003858829473
19 -0.028489602826428
20 0.000016506981668
21 0.35056581488064
22 -0.14563851682737
23 -0.024169096402900
24 0.015115575638920
25 0.000071942230036
26 0.35057608925993
27 -0.14564126962389
28 0.025171667567418
29 0.013378122164326
30 0.000284643246182
31 0.004223933566060
32 0.001189894385288
33 0.000000044296423
34 0.000000042047927
35 -0.000496263478864
 Sym=      3.1
 Ene=      -0.5729
 Spin= Alpha
 Occup=    2.000000
1 -0.000001400230115
2 0.000069419357608
3 0.000012274657934
4 0.027012007713580
5 0.64053129214164
6 0.002427596253559
7 -0.005110310675298
8 -0.12114994113242
9 -0.000461304583375
10 -0.020638523303767
11 0.020643176996314
12 -0.000004653692547
13 0.001517191235800
14 -0.000140152258305
15 -0.000862931915879
16 0.63785668893457
17 -0.18207511311252
18 -0.000707168228233
19 -0.022552181480661
20 0.000174033500842
21 -0.31509568239535
22 0.089945947230084
23 0.015302064717802
24 0.003445749617861
25 -0.000047992563395
26 -0.32278277120539
27 0.092137264054952
28 -0.015218815497922
29 0.004308488640860
30 -0.000183339527611
31 0.000025504289324
32 0.000001330021596
33 0.000012752252446
34 0.000307616626865
35 -0.000002167705676
 Sym=      4.1
 Ene=      -0.5728
 Spin= Alpha
 Occup=    2.000000
1 -0.000000230679396
2 0.000005968378799
3 0.000003021720482
4 0.64053530404652
5 -0.027024880493941
6 0.002726165661562
7 -0.12110546785921
8 0.005108302641051
9 -0.000517523729007
10 -0.001305967497171
11 0.001312933847712
12 -0.000006966350540
13 -0.023844399407458
14 -0.001048602283916
15 -0.000059577721313
16 -0.004434017418569
17 0.001265732634880
18 0.012691042459434
19 -0.000289975675200
20 0.000053096225051
21 0.55461226142311
22 -0.15828202335919
23 -0.013302919011051
24 0.015718927567534
25 0.000223037400116
26 -0.55017864096267
27 0.15701222673471
28 -0.014162531162595
29 -0.014805475095569
30 -0.000340388158555
31 0.000028076267115
32 0.000000678305426
33 0.000307336343920
34 -0.000013187419478
35 -0.000002282560010
 Sym=      5.1
 Ene=      -0.1857
 Spin= Alpha
 Occup=    1.229886
1 0.000647527449755
2 -0.004451284131709
3 -0.001731345492367
4 -0.002742270028069
5 -0.002242809860081
6 0.59942026486273
7 -0.000314294575747
8 -0.000255974459072
9 0.071323642536316
10 -0.001080797914295
11 -0.001088802966198
12 0.002169600880493
13 0.000004225571869
14 -0.000013136914420
15 -0.000013018410861
16 -0.011054810988943
17 0.006039499725696
18 -0.000045823750670
19 0.000376235009354
20 0.013781515689730
21 -0.011016790446583
22 0.006030303694725
23 0.000299205789199
24 -0.000274935932520
25 0.013777151959420
26 -0.010883960304865
27 0.005993066200108
28 -0.000430618869703
29 -0.000246303592866
30 0.013767788579343
31 0.67090275659610
32 0.028064411243279
33 0.000001383732396
34 0.000001106105025
35 -0.000648037668335
 Sym=      6.1
 Ene=      -0.0980
 Spin= Alpha
 Occup=    0.770114
1 0.001926461466552
2 -0.016081767267912
3 -0.014622521990567
4 0.002852421952237
5 0.002331885400145
6 -0.66199915771414
7 0.000333917734615
8 0.000273456242078
9 -0.078056419793408
10 0.000264770087025
11 0.000257904908648
12 -0.000522674995674
13 0.000003708995423
14 0.000000748214295
15 0.000003218166102
16 -0.001384327456249
17 0.001955737944545
18 0.000069673387939
19 0.000287460054761
20 -0.013832455144121
21 -0.001346721275164
22 0.001948397501763
23 0.000261416940431
24 -0.000075186548126
25 -0.013831033214096
26 -0.001203697513623
27 0.001920388314181
28 -0.000142260455947
29 -0.000058213788893
30 -0.013833788034828
31 0.75001337994615
32 -0.031699164540097
33 0.000001745671292
34 0.000001371595773
35 0.002063296225035
 Sym=      7.1
 Ene=       0.2024
 Spin= Alpha
 Occup=    0.000000
1 0.080622805851810
2 -0.21690715167434
3 -2.08716143325969
4 0.000020065740972
5 0.000019881592325
6 0.013372535314741
7 0.000127452608599
8 0.000209845269618
9 0.003791626117329
10 -0.013964528655579
11 -0.013978981315314
12 0.027943509970893
13 -0.000003556713049
14 -0.000215591607374
15 -0.000176575966318
16 0.053427764050432
17 1.02031752331837
18 -0.000651568215549
19 -0.018399207012545
20 0.000842561868883
21 0.053350472609313
22 1.02045877029419
23 -0.015612391098988
24 0.009751139761848
25 0.000878311787972
26 0.053279983346737
27 1.02102970979321
28 0.016258994174438
29 0.008632463992188
30 0.001016149447812
31 -0.090721449130690
32 0.040700057001567
33 0.000028165711930
34 0.000022688408381
35 -0.004886026533526
 Sym=      8.1
 Ene=       0.2705
 Spin= Alpha
 Occup=    0.000000
1 0.000008221849232
2 -0.000063589553291
3 -0.000178547343460
4 -0.031565059866563
5 -0.44215061771146
6 -0.001691011948701
7 -0.089086915108490
8 -1.24817801236376
9 -0.004970816151876
10 0.021394851777533
11 -0.021390616962996
12 -0.000004234814537
13 -0.000853341978272
14 0.000200372944137
15 0.001226979956823
16 0.020562229188506
17 2.19342280542726
18 -0.001108016153655
19 -0.027697260222301
20 -0.000002371237000
21 -0.009520362318269
22 -1.02813651556242
23 0.009312479989198
24 -0.009622044962340
25 -0.000036149576521
26 -0.010812879113970
27 -1.16520506183527
28 -0.011556906440624
29 -0.009640485219231
30 -0.000134758666613
31 -0.000392928628595
32 0.000099880155679
33 0.000190497292015
34 0.003116307568037
35 -0.000022698579177
 Sym=      9.1
 Ene=       0.2705
 Spin= Alpha
 Occup=    0.000000
1 0.000015867570974
2 -0.000013234882579
3 -0.000327514259845
4 -0.44218746842483
5 0.031569354637775
6 -0.001791368703801
7 -1.24786835806262
8 0.089110120808415
9 -0.005264959789229
10 0.000725087275639
11 -0.000735802974502
12 0.000010715698863
13 0.024697677328503
14 0.001412301563976
15 0.000011861112242
16 -0.000710821096107
17 -0.079013807461813
18 -0.003624511418843
19 0.001127539624393
20 -0.000011433541337
21 0.018278008544589
22 1.93899225994575
23 -0.021686274759846
24 0.011549880076766
25 0.000037567498769
26 -0.017485498020350
27 -1.85957303296406
28 -0.021665365433218
29 -0.009323617606230
30 -0.000209582260041
31 -0.000437543197237
32 0.000123456124386
33 0.003061925233813
34 -0.000250586598727
35 -0.000024952856043
 Sym=     10.1
 Ene=       0.6143
 Spin= Alpha
 Occup=    0.000000
1 -0.000945323947932
2 -0.002258257112037
3 0.007558536800956
4 -0.45119409739179
5 0.008775056157252
6 -0.008446010330930
7 1.68142658128492
8 -0.032614613101092
9 0.013284873043011
10 0.008463007475311
11 -0.009795511433905
12 0.001332503958594
13 0.12204327424889
14 0.002467784913676
15 0.000456783316166
16 -0.026358090493632
17 0.008979472078899
18 0.070296412092036
19 -0.003060851969892
20 0.000037968938769
21 -1.14171485526428
22 0.36442641589295
23 0.014689246776086
24 0.033411279214898
25 0.000613580952553
26 1.15187026426458
27 -0.36645853508245
28 0.012205473373159
29 -0.032231630843186
30 -0.001057132063174
31 -0.025772731412284
32 0.027602230578847
33 0.009009720917968
34 -0.000166122189548
35 -0.000427688723560
 Sym=     11.1
 Ene=       0.6145
 Spin= Alpha
 Occup=    0.000000
1 -0.001136693178132
2 -0.002719947090786
3 0.008749337032741
4 -0.008605554367081
5 -0.45125403478980
6 -0.008794008354013
7 0.032195601998390
8 1.68245027476948
9 0.012782249971497
10 0.10493557937975
11 -0.10651430058350
12 0.001578721203754
13 -0.010588877190564
14 0.000530248879758
15 0.001492782587912
16 -1.33082357741508
17 0.42395903402467
18 -0.001347132637531
19 -0.006091434380459
20 0.000490578513461
21 0.67390908714917
22 -0.21319228167360
23 0.033937405469963
24 0.050041760964127
25 -0.000394339128647
26 0.63709759915908
27 -0.20145867772926
28 -0.030722719404524
29 0.053376303829314
30 -0.000648381720983
31 -0.028124349385432
32 0.030180149880407
33 0.000180806032921
34 0.008993868245212
35 -0.000435879183974
 Sym=     12.1
 Ene=       0.6225
 Spin= Alpha
 Occup=    0.000000
1 -0.071596372323276
2 -0.16789290749479
3 0.56367346060894
4 0.008992979429400
5 0.009007120366521
6 -0.51209463379312
7 -0.026495166382044
8 -0.027965942287185
9 0.48739365115063
10 -0.052560594379199
11 -0.049015689527913
12 0.10157628390711
13 -0.001562906994935
14 -0.000670497652206
15 -0.000544629305516
16 -0.39812077749829
17 0.18182908009707
18 -0.002266549771933
19 -0.038852654967894
20 -0.022040043086580
21 -0.41383258698135
22 0.18682232958499
23 -0.033777688260481
24 0.019518124019070
25 -0.022009614821602
26 -0.44577815426748
27 0.19819542219166
28 0.034860609843809
29 0.017999777849734
30 -0.021884992957625
31 -1.77351675532091
32 1.92198600054483
33 -0.000132565314246
34 -0.000140925341972
35 -0.018982416627943
 Sym=     13.1
 Ene=       0.7232
 Spin= Alpha
 Occup=    0.000000
1 0.083493428181302
2 0.089187094876438
3 -0.47996419985730
4 0.004502318123618
5 0.003366106016647
6 -1.01908606391271
7 -0.005430589261105
8 -0.003212675489845
9 1.23403321478351
10 0.098057446739230
11 0.098085724498209
12 -0.19614317123744
13 -0.000004017184227
14 0.001507702178628
15 0.001233023349880
16 0.82413639436881
17 -0.58760989638273
18 0.003164010617093
19 0.085165072549389
20 -0.038253978033255
21 0.82502541049218
22 -0.58725095061236
23 0.072282665151932
24 -0.044916596746980
25 -0.038423429832530
26 0.82502945534006
27 -0.58726807440941
28 -0.074932325082012
29 -0.039731268309042
30 -0.039060704933963
31 -0.10546458683635
32 0.075292061325162
33 -0.000016276167083
34 -0.000007988398346
35 -0.022746420827631
 Sym=     14.1
 Ene=       0.7959
 Spin= Alpha
 Occup=    0.000000
1 0.022315873477769
2 -0.11940896952469
3 0.071661120172070
4 -0.003355113552491
5 -0.003017471539812
6 0.95661936201244
7 0.003549325576333
8 0.003754325164688
9 -1.23042669117523
10 0.082928953180635
11 0.083144252750408
12 -0.16607320593104
13 -0.000051540906795
14 0.001491492131971
15 0.001222420646979
16 0.66499525028049
17 -0.60782960607546
18 0.002689719852162
19 0.082194751120062
20 0.029955547389904
21 0.66491668244274
22 -0.60702187417495
23 0.069625974974126
24 -0.043825386854181
25 0.029730006356525
26 0.66336833476904
27 -0.60619422162471
28 -0.072992830778834
29 -0.038829722723052
30 0.028855475338821
31 -1.17218526210986
32 1.42406692188862
33 -0.000065155959094
34 -0.000051224608386
35 0.071307680382957
 Sym=     15.1
 Ene=       0.9024
 Spin= Alpha
 Occup=    0.000000
1 -0.000031225124213
2 -0.000202264120395
3 0.000335287280538
4 -1.24225171895909
5 0.031580997968471
6 -0.005100296366799
7 2.30714992704259
8 -0.058653726730506
9 0.009608690793987
10 -0.023763277488445
11 0.023879661643497
12 -0.000116384155052
13 -0.34263837553794
14 -0.008468492628586
15 -0.001235201157819
16 0.006006221819255
17 -0.019963286405195
18 -0.071037450297076
19 0.005376463158717
20 -0.000331278137054
21 0.51208419818817
22 -1.73475729099242
23 0.19259160265695
24 -0.16320032581567
25 -0.003224435373030
26 -0.51754432838563
27 1.75401948616043
28 0.20658263152195
29 0.14948116821544
30 0.004986825910901
31 -0.000600726587100
32 0.000771513658301
33 -0.001824796420951
34 0.000138780686631
35 -0.000028710716892
 Sym=     16.1
 Ene=       0.9024
 Spin= Alpha
 Occup=    0.000000
1 -0.000052327228289
2 -0.000237448698846
3 0.000349366729848
4 -0.031562028846984
5 -1.24224366278918
6 -0.004452191817601
7 0.058622852855717
8 2.30734104779355
9 0.008357011404312
10 -0.29667812434575
11 0.29669290396163
12 -0.000014779615880
13 0.027563341501862
14 -0.001596731798345
15 -0.005748756659729
16 0.59454278730322
17 -2.01437942462428
18 0.010918380406208
19 0.28987379591817
20 -0.002952277545097
21 -0.30240557417441
22 1.02426512994417
23 -0.15759253237598
24 0.026213961413881
25 0.001458865002614
26 -0.29232526879522
27 0.99010688403697
28 0.15501279661050
29 0.012134358489104
30 0.002722216153356
31 -0.000360435869507
32 0.000472187905456
33 0.000041493184724
34 -0.002002663463981
35 -0.000037255998038
 Sym=     17.1
 Ene=       1.0726
 Spin= Alpha
 Occup=    0.000000
1 -0.79634712914408
2 -3.61963075406535
3 6.12976035317030
4 0.000179935745196
5 0.000221026560195
6 -0.034975666869101
7 -0.000234788874514
8 -0.000593403315230
9 0.035480294919736
10 0.022498168441196
11 0.022632825485867
12 -0.045130993927063
13 0.000044098488061
14 0.000216757921400
15 0.000174903640609
16 -0.17348204113722
17 -0.86073558291972
18 0.006654035980689
19 0.18796403751041
20 -0.003048776834205
21 -0.17352405770051
22 -0.86097847802317
23 0.15945573285423
24 -0.099679475666859
25 -0.003370865164883
26 -0.17336194889625
27 -0.86137815774578
28 -0.16603891122712
29 -0.088236801558464
30 -0.004623516985346
31 0.18195648859174
32 -0.22506653612988
33 -0.000132901109322
34 -0.000108321476351
35 -0.051311348023717
 Sym=     18.1
 Ene=       1.2164
 Spin= Alpha
 Occup=    0.000000
1 -0.000138712289005
2 -0.000592347052761
3 0.000967894475701
4 0.000114019281578
5 0.002673469991540
6 -0.000178979734682
7 0.000301261868632
8 0.007385495734588
9 0.000346323148241
10 -0.011356535927859
11 0.007197070839073
12 0.004159465088786
13 -0.002037796435893
14 0.025936310971385
15 0.62548983516357
16 -0.007896855961063
17 0.001644889184379
18 -0.001789899081820
19 0.001582118406097
20 0.41266386103731
21 0.003657227653376
22 -0.000777926412193
23 -0.005520288236037
24 -0.006713198191455
25 -0.20413348492464
26 0.003747254140491
27 -0.000807294161529
28 0.006803360721970
29 -0.007052243110620
30 -0.20862538666632
31 0.001124130623889
32 -0.001376627583489
33 0.000085231048743
34 0.002092154815175
35 -0.000146392333756
 Sym=     19.1
 Ene=       1.2165
 Spin= Alpha
 Occup=    0.000000
1 -0.000150803946772
2 -0.000643545241561
3 0.001051839417808
4 0.002674140938725
5 -0.000108217688095
6 -0.000237099010104
7 0.007373394192346
8 -0.000312491686398
9 0.000390087452966
10 -0.005528389523094
11 0.000858469702770
12 0.004669919820324
13 -0.015004800704152
14 0.62544202703646
15 -0.026079125056302
16 -0.000134690635684
17 0.000021388121581
18 -0.011165447232981
19 0.000404248889065
20 -0.002654564132556
21 -0.006898340488386
22 0.001439994302751
23 -0.002248988648224
24 -0.007405048048774
25 0.35867641987062
26 0.006489907590635
27 -0.001385933349690
28 0.001234377780481
29 0.007506640856472
30 -0.35602887314820
31 0.001258262429424
32 -0.001539808737448
33 0.002089209792563
34 -0.000088636384949
35 -0.000160225260656
 Sym=     20.1
 Ene=       1.5150
 Spin= Alpha
 Occup=    0.000000
1 -0.000205031321524
2 -0.000903628251146
3 0.001640682925981
4 0.006234417880877
5 0.002678525668332