
 Working directory              : /scratch/cc/140706/molpro.KiKVIyxO7c/
 Global scratch directory       : /scratch/cc/140706/molpro.KiKVIyxO7c/
 Wavefunction directory         : /home/chimica2/cavallotti/wfu/
 Main file repository           : /scratch/cc/140706/molpro.KiKVIyxO7c/

 id        : polimi

 Nodes     nprocs
 node-6-11    4
 GA implementation: MPI file
 GA implementation (serial work in mppx): MPI file

 Using customized tuning parameters: mindgm=1; mindgv=20; mindgc=4; mindgr=1; noblas=0; minvec=7
 default implementation of scratch files=sf  


 Variables initialized (1015), CPU time= 0.01 sec
  memory,         400 ,m
   nosym
  geometry={angstrom
   C1
   H2   C1   R1
   H3   C1   R2   H2   A2
   H4   C1   R3   H2   A3   H3   D3
   H21 C1 BB H2 ANG1 H3 DH1
  }
  R1                             =    1.0790999999999999
  R2                             =    1.0790999999999999
  R3                             =    1.0790999999999999
  A2                             =    117.11430000000000
  A3                             =    117.12210000000000
  D3                             =    213.11189999999999
  DH1                            =    106.55010000000000
  ANG1                           =    99.882900000000006
  BB                             =    2.0000000000000000
 
   basis=cc-pvdz
   {multi;closed, 4;occ, 6;wf, 10,1,0,;state,1;maxiter,40}
   {RS2,SHIFT=0.2;ORBITAL,IGNORE_ERROR;STATE,1}
   CBSen = energy
  put,molden,molpro.molden
 Commands initialized (834), CPU time= 0.01 sec, 672 directives.
 Default parameters read. Elapsed time= 0.14 sec

 Checking input...
 Passed
1


                                         ***  PROGRAM SYSTEM MOLPRO  ***
                                       Copyright, TTI GmbH Stuttgart, 2015
                                    Version 2022.2 linked Thu Sep 29 12:37:28 2022


 **********************************************************************************************************************************
 LABEL *                                                                                 
  64 bit mpp version                                                                     DATE: 03-Jun-23          TIME: 08:59:35  
 **********************************************************************************************************************************

 SHA1:             51306cdc306ce2a111a2867affebcb289530e0a7
 **********************************************************************************************************************************

 Memory per process:       400 MW
 Total memory per node:   1600 MW

 GA preallocation disabled
 GA check disabled

 Variable memory set to 400.0 MW

 ZSYMEL=NOSYM

 SETTING R1             =         1.07910000                                  
 SETTING R2             =         1.07910000                                  
 SETTING R3             =         1.07910000                                  
 SETTING A2             =       117.11430000                                  
 SETTING A3             =       117.12210000                                  
 SETTING D3             =       213.11190000                                  
 SETTING DH1            =       106.55010000                                  
 SETTING ANG1           =        99.88290000                                  
 SETTING BB             =         2.00000000                                  
 SETTING BASIS          =    CC-PVDZ


 Recomputing integrals since basis changed


 Using spherical harmonics

 Library entry C      S cc-pVDZ              selected for orbital group  1
 Library entry C      P cc-pVDZ              selected for orbital group  1
 Library entry C      D cc-pVDZ              selected for orbital group  1
 Library entry H      S cc-pVDZ              selected for orbital group  2
 Library entry H      P cc-pVDZ              selected for orbital group  2


 PROGRAM * SEWARD (Integral evaluation for generally contracted gaussian basis sets)     Author: Roland Lindh, 1990

 Geometry written to block  1 of record 700

 Orientation using atomic masses  
 Molecule type: Asymmetric top
 Rotational constants:      88.4744671     88.4771717    147.8845936 GHz  (calculated with average atomic masses)

 Point group  C1  



 ATOMIC COORDINATES

 NR  ATOM    CHARGE       X              Y              Z

   1  C1      6.00   -0.000007592   -0.000000964   -0.171489360
   2  H2      1.00   -1.154133021    1.644336370   -0.521489329
   3  H3      1.00    2.001117514    0.177511830   -0.521258248
   4  H4      1.00   -0.846750153   -1.821742639   -0.521682254
   5  H21     1.00   -0.000143873   -0.000094070    3.607962885

 Bond lengths in Bohr (Angstrom)

 1-2  2.039203461  1-3  2.039203461  1-4  2.039203461
     ( 1.079100000)     ( 1.079100000)     ( 1.079100000)

 Bond angles

  2-1-3  117.11430000   2-1-4  117.12210000   3-1-4  117.11575999

 NUCLEAR CHARGE:                   10
 NUMBER OF PRIMITIVE AOS:          55
 NUMBER OF SYMMETRY AOS:           54
 NUMBER OF CONTRACTIONS:           34   (   34A   )
 NUMBER OF INNER CORE ORBITALS:     0   (    0A   )
 NUMBER OF OUTER CORE ORBITALS:     1   (    1A   )
 NUMBER OF VALENCE ORBITALS:        8   (    8A   )


 NUCLEAR REPULSION ENERGY   11.92996131


 Eigenvalues of metric

         1 0.140E-01 0.358E-01 0.358E-01 0.434E-01 0.546E-01 0.546E-01 0.757E-01 0.120E+00


 Contracted 2-electron integrals neglected if value below      1.0D-11
 AO integral compression algorithm  1   Integral accuracy      1.0D-11

     1.311 MB (compressed) written to integral file (100.0%)

     Node minimum: 0.262 MB, node maximum: 0.524 MB


 NUMBER OF SORTED TWO-ELECTRON INTEGRALS:      44104.     BUFFER LENGTH:  32768
 NUMBER OF SEGMENTS:   1  SEGMENT LENGTH:      44104      RECORD LENGTH: 524288

 Memory used in sort:       0.60 MW

 SORT1 READ      219389. AND WROTE       42411. INTEGRALS IN      1 RECORDS. CPU TIME:     0.01 SEC, REAL TIME:     0.02 SEC
 SORT2 READ      170543. AND WROTE      177310. INTEGRALS IN      8 RECORDS. CPU TIME:     0.01 SEC, REAL TIME:     0.01 SEC

 Node minimum:       44104.  Node maximum:       44551. integrals

 OPERATOR DM      FOR CENTER  0  COORDINATES:    0.000000    0.000000    0.000000


 **********************************************************************************************************************************
 DATASETS  * FILE   NREC   LENGTH (MB)   RECORD NAMES
              1      18       28.65       500      610      700      900      950      970     1000      129      960     1100   
                                          VAR    BASINP    GEOM    SYMINP    ZMAT    AOBASIS   BASIS     P2S    ABASIS      S 
                                         1400     1410     1200     1210     1080     1600     1650     1700   
                                           T        V       H0       H01     AOSYM     SMH    MOLCAS    OPER   

 PROGRAMS   *        TOTAL       INT
 CPU TIMES  *         0.35      0.21
 REAL TIME  *         0.77 SEC
 DISK USED  *        28.95 MB (local),      132.65 MB (total)
 GA USED    *         0.00 MB       (max)       0.00 MB       (current)
 **********************************************************************************************************************************

 PROGRAM * MULTI (Direct Multiconfiguration SCF)       Authors: P.J. Knowles, H.-J. Werner (1984)
                                                                D.A. Kreplin, P.J. Knowles, H.-J. Werner (2019)

 Number of closed-shell orbitals:   4 (    4)
 Number of active  orbitals:        2 (    2)
 Number of external orbitals:      28 (   28)

 State symmetry 1

 Number of active electrons:   2    Spin symmetry=Singlet   Space symmetry=1
 Number of states:             1
 Number of CSFs:               3   (4 determinants, 4 intermediate states)

 Orbital guess generated from atomic densities. Full valence occupancy:    9

 Wavefunction dump at record             2140.2

 Convergence thresholds  0.10E-04 (gradient)  0.10E-05 (energy)
 
 Number of orbital rotations:  176  ( 8 closed/active, 112 closed/virtual, 0 active/active, 56 active/virtual )
 Total number of variables:    180
 
 Second-order MCSCF: L-BFGS accelerated
 
 ITER  MIC  NCI  NEG     ENERGY(VAR)    ENERGY(PROJ) ENERGY CHANGE       GRAD(0)  GRAD(ORB)   GRAD(CI)      STEP      TIME
   1    7    6    0    -40.08928575     -40.10758362   -0.01829786    0.13954633 0.00025154 0.00000000  0.23E+00      0.19
   2    8    7    0    -40.10732274     -40.10733518   -0.00001244    0.00293915 0.00000011 0.00000000  0.69E-02      0.44
   3    5    5    0    -40.10733520     -40.10733520   -0.00000000    0.00000423 0.00000001 0.00000000  0.21E-04      0.59

 CONVERGENCE REACHED!  Final gradient:    0.00000000 ( 0.63E-09)
                       Final energy:    -40.10733520
 
 First order charge density matrix for state 1.1 saved on record 2140.2 (density set 1)
 
 Results for state 1.1
 =====================
 !MCSCF STATE 1.1 Energy                       -40.107335198175
 Nuclear energy                                 11.92996131
 Kinetic energy                                 39.84891453
 One electron energy                           -76.52271508
 Two electron energy                            24.48541857
 Virial ratio                                    2.00648501
 
 !MCSCF STATE 1.1 Dipole moment                  0.00003696     0.00002042    -0.37543545
 Dipole moment /Debye                            0.00009393     0.00005189    -0.95426172
 
 No non-zero expectation values
 
 
 Natural orbital dump at molpro section 2140.2 (Orbital set 2)


 **********************************************************************************************************************************
 DATASETS  * FILE   NREC   LENGTH (MB)   RECORD NAMES
              1      19       28.95       500      610      700      900      950      970     1000      129      960     1100   
                                          VAR    BASINP    GEOM    SYMINP    ZMAT    AOBASIS   BASIS     P2S    ABASIS      S 
                                         1400     1410     1200     1210     1080     1600     1650     1700     1380   
                                           T        V       H0       H01     AOSYM     SMH    MOLCAS    OPER     JKOP   

              2       4        0.43       700     1000      520     2140   
                                         GEOM     BASIS   MCVARS    MCSCF   

 PROGRAMS   *        TOTAL     MULTI       INT
 CPU TIMES  *         0.67      0.32      0.21
 REAL TIME  *         1.42 SEC
 DISK USED  *        29.42 MB (local),      134.51 MB (total)
 SF USED    *         1.04 MB
 GA USED    *         0.00 MB       (max)       0.00 MB       (current)
 **********************************************************************************************************************************


 PROGRAM * RS2 (Multireference RS Perturbation Theory)     Authors: H.-J. Werner (1993), P. Celani (1998)


 Level shift= 0.20

 Convergence thresholds:  THRVAR = 1.00D-08  THRDEN = 1.00D-06

 Number of optimized states: 1  Roots:    1
 Number of reference states: 1  Roots:    1

 Reference symmetry:                   1   Singlet 
 Number of electrons:                 10
 Maximum number of shells:             4
 Maximum number of spin couplings:     5

 Reference space:        3 conf        3 CSFs
 N elec internal:       15 conf       15 CSFs
 N-1 el internal:       23 conf       32 CSFs
 N-2 el internal:       25 conf       52 CSFs

 Number of electrons in valence space:                      8
 Maximum number of open shell orbitals in reference space:  2
 Maximum number of open shell orbitals in internal spaces:  6


 Number of core orbitals:           1 (   1 )
 Number of closed-shell orbitals:   3 (   3 )
 Number of active  orbitals:        2 (   2 )
 Number of external orbitals:      28 (  28 )

 Molecular orbitals read from record     2140.2  Type=MCSCF/NATURAL (state 1.1)

 Integral transformation finished. Total CPU:   0.00 sec, npass=  1  Memory used:   0.11 MW


 Number of p-space configurations:   3

 Reference wavefunction optimized for reference space (refopt=1)

 State     Reference Energy 
     1       -40.10733520

 Number of blocks in overlap matrix:     2   Smallest eigenvalue:  0.10D+01
 Number of N-2 electron functions:      22
 Number of N-1 electron functions:      32

 Number of internal configurations:                   15
 Number of singly external configurations:           896
 Number of doubly external configurations:          8680
 Total number of contracted configurations:         9591
 Total number of uncontracted configurations:      21351

 Weight factors for SA-density in H0:    1.000000

 FIMAX=  0.39D-01  FXMAX=  0.41D-13  DIAG=  F  T  NOREF=1  NOINT=0  IHPPD=2

 Nuclear energy:                      11.92996131
 Core energy:                        -35.83014760
 Zeroth-order valence energy:         -4.72461189
 Zeroth-order total energy:          -28.62479818
 First-order energy:                 -11.48253702

 Using uncontracted singles

 Diagonal Coupling coefficients finished.               Storage:     883 words, CPU-Time:      0.00 seconds.
 Energy denominators for pairs finished in 0 passes.    Storage:    2295 words, CPU-time:      0.00 seconds.

 A level shift of 0.20 is applied.

  ITER. STATE  ROOT     SQ.NORM     CORR.ENERGY   TOTAL ENERGY   ENERGY CHANGE       DEN1      VAR(S)    VAR(P)      TIME
    1     1     1     1.00708875    -0.00141775   -40.10875295    -0.00141775    -0.12829081  0.71D-02  0.35D-01     0.01
    2     1     1     1.04203321    -0.13717975   -40.24451495    -0.13576200    -0.00007922  0.22D-04  0.32D-04     0.02
    3     1     1     1.04212557    -0.13732204   -40.24465724    -0.00014229    -0.00009398  0.46D-06  0.11D-06     0.02
    4     1     1     1.04214250    -0.13732650   -40.24466170    -0.00000446    -0.00000001  0.33D-08  0.30D-08     0.02
    5     1     1     1.04214355    -0.13732673   -40.24466193    -0.00000022    -0.00000083  0.62D-10  0.31D-10     0.02
    6     1     1     1.04214372    -0.13732676   -40.24466195    -0.00000003    -0.00000001  0.11D-11  0.46D-12     0.02

 Energies without level shift correction:

    6     1     1     1.04214372    -0.12889801   -40.23623321

 Energy contributions for state 1.1:
 ===================================

            Energy contr.      SQ.Norm of FOWF
 Space I     -0.00051731          0.00028289
 Space S     -0.01570407          0.00718671
 Space P     -0.11267663          0.03467413


 =====================================
 Analysis of CPU times by interactions
 =====================================

       I      S      P

 I   0.0%
 S   0.0%   0.0%
 P   0.0%   0.0%   0.0%

 Initialization:  50.0%
 Other:           50.0%

 Total CPU:        0.0 seconds
 =====================================



 Reference coefficients greater than 0.0500000
 =============================================
 22220           0.9475406
 22202          -0.3196354


 RESULTS FOR STATE 1.1
 =====================

 Coefficient of reference function:   C(0) = 1.00000000 (fixed)   1.00000000 (relaxed)

 Energy contributions of configuration classes

 CLASS          SQ.NORM        ECORR1        ECORR2
 +++++++++++++++++++++++++++++++++++++++++++++++++++
 Internals    0.00028289   -0.00051731    0.13622446
 Singles      0.00718671   -0.01570407   -0.03346194
 Pairs        0.03467413   -0.11267662   -0.24008928
 Total        1.04214372   -0.12889800   -0.13732676
 +++++++++++++++++++++++++++++++++++++++++++++++++++


 Reference energy                     -40.10733520
 Nuclear energy                        11.92996131
 Kinetic energy                        39.94656759
 One electron energy                  -76.46545699
 Two electron energy                   24.29083373
 Virial quotient                       -1.00746233
 Correlation energy                    -0.13732676
 !RSPT2 STATE 1.1 Energy              -40.244661953900

 Properties without orbital relaxation:

 !RSPT2 STATE 1.1 Dipole moment         0.00003801     0.00002090    -0.37928437
 Dipole moment /Debye                   0.00009661     0.00005313    -0.96404470


 **********************************************************************************************************************************
 DATASETS  * FILE   NREC   LENGTH (MB)   RECORD NAMES
              1      19       28.95       500      610      700      900      950      970     1000      129      960     1100   
                                          VAR    BASINP    GEOM    SYMINP    ZMAT    AOBASIS   BASIS     P2S    ABASIS      S 
                                         1400     1410     1200     1210     1080     1600     1650     1700     1380   
                                           T        V       H0       H01     AOSYM     SMH    MOLCAS    OPER     JKOP   

              2       4        0.43       700     1000      520     2140   
                                         GEOM     BASIS   MCVARS    MCSCF   

 PROGRAMS   *        TOTAL       RS2     MULTI       INT
 CPU TIMES  *         0.74      0.07      0.32      0.21
 REAL TIME  *         1.62 SEC
 DISK USED  *        29.42 MB (local),      134.51 MB (total)
 SF USED    *         1.23 MB
 GA USED    *         0.00 MB       (max)       0.00 MB       (current)
 **********************************************************************************************************************************
 SETTING CBSEN          =       -40.24466195  AU                              

 Dump information in style MOLDEN to molpro.molden                                                                   

 Molecular orbitals read from record     2140.2  Type=MCSCF/NATURAL (state 1.1)
 Occupation numbers read from record     2140.2  Type=MCSCF/NATURAL (state 1.1)
 Orbital energies read from record       2140.2  Type=MCSCF/NATURAL (state 1.1)
 Redundancy group numbers read from rec  2140.2  Type=MCSCF/NATURAL (state 1.1)

 DUMP ORBITAL  1.1 AS ORBITAL    1  occ=    2.0000  eig=  -11.2622  GROUP=   2
 DUMP ORBITAL  2.1 AS ORBITAL    2  occ=    2.0000  eig=   -0.9164  GROUP=   2
 DUMP ORBITAL  3.1 AS ORBITAL    3  occ=    2.0000  eig=   -0.5796  GROUP=   2
 DUMP ORBITAL  4.1 AS ORBITAL    4  occ=    2.0000  eig=   -0.5796  GROUP=   2
 DUMP ORBITAL  5.1 AS ORBITAL    5  occ=    1.7957  eig=   -0.3315  GROUP=   3
 DUMP ORBITAL  6.1 AS ORBITAL    6  occ=    0.2043  eig=    0.1063  GROUP=   3

 Total charge:      10.000000

 **********************************************************************************************************************************

 RS2/cc-pVDZ energy=    -40.244661953900

             RS2           MULTI
    -40.24466195    -40.10733520
 **********************************************************************************************************************************
 Molpro calculation terminated
