[Molden Format]
[Molpro variables]
_NUMVAR=  1038.000000000000    
_AVOGAD= 0.6022140760000000E+24
_BOLTZ= 0.1380649000000000E-22
_CLIGHTSI=  299792458.0000000    
_JOULE= 0.4359744722207100E-17
_JPCAL=  4.184000000000000    
_PLANCK= 0.6626070150000000E-33
_BOHR= 0.5291772109030000E-10
_ECHARG= 0.1602176634000000E-18
_ENULL= 0.8854187812800001E-11
_MU= 0.1660539066600000E-26
_EMASS= 0.9109383701500001E-30
_AMU2AU=  1822.888486217313    
_CLIGHT=  29979245800.00000    
_EV= 0.3674932217565494E-01
_KJOULE= 0.3808798847133432E-03
_KJOULE/MOL= 0.3808798847133432E-03
_CM= 0.4556335252912009E-05
_CM-1= 0.4556335252912009E-05
_DEB2SI= 0.3335640951981520E-29
_KCAL= 0.1593601437640628E-02
_KCAL/MOL= 0.1593601437640628E-02
_KELVIN= 0.3166811563455608E-05
_HERTZ= 0.1519829846057038E-15
_HZ= 0.1519829846057038E-15
_TOA= 0.5291772109030000    
_TOANG= 0.5291772109030000    
_TORAD= 0.1745329251994330E-01
_TOCM=  219474.6313631965    
_TODEBYE=  2.541746473194078    
_TOE= 0.4803204712570263E-09
_TOEV=  27.21138624598803    
_TOHERTZ=  6579683920501656.    
_TOHZ=  6579683920501656.    
_TOK=  315775.0248040668    
_TOKCAL=  627.5094740630558    
_TOKELVIN=  315775.0248040668    
_TOKJ=  2625.499639479825    
_TOKJOULE=  2625.499639479825    
_TOKG= 0.1660539066600000E-26
_ANG=  1.889726124625770    
_ANGSTROM=  1.889726124625770    
_RPAREF=  0.000000000000000    
_RPADISS=  0.000000000000000    
_IGNORE_UNDEF=  2.000000000000000    
_STRICTCHECK=  0.000000000000000    
!SEWARD=  0.000000000000000    
!MULTI=  0.000000000000000    
!DFMULTI=  0.000000000000000    
_SEW_ONEEL=  0.000000000000000    
_CPPDONE=FALSE
_DKROLL_DONE=  0.000000000000000    
_FNUC_DONE=  0.000000000000000    
_FOCKDONE=  0.000000000000000    
_GRADONE=FALSE
_HESSDONE=FALSE
_INTDONE=TRUE
_SCFDONE=FALSE
_MODUL_BLOCK=FALSE
_MODUL_CUDA=FALSE
_MODUL_SLATER=FALSE
_MODUL_MRCC=TRUE
_MODUL_NBO6=FALSE
_MODUL_NECI=FALSE
_MODUL_AIMS=TRUE
_MODUL_GECCO=FALSE
_ISWINDOWS=FALSE
_MRCC_EXEC=/software/cinetica/mrcc/bin/dmrcc
_FITC_AO_SAVED=FALSE
_FITC_MO_SAVED=FALSE
_SHARED_FS=TRUE
_LSTYP=SEWARD
_INTYP=INTS
_GEOMTYP=ZMAT
_GRADTYP=ALASKA
_DIRECT=FALSE
_DKHO= -1.000000000000000    
_FNUC=  0.000000000000000    
_SYNCM=  0.000000000000000    
_BASIS=CC-PVDZ
_ZORIENT=  1.000000000000000    
!ZORIENT=  0.000000000000000    
_NELEC=  10.00000000000000    
!SPIN=  0.000000000000000    
_QSDSTEP=  0.000000000000000    
_QSDIRC=  0.000000000000000    
_PROGRAM=RS2
_CPUSTEP= 0.7000000000000006E-01
_SYSSTEP= 0.3000000000000003E-01
_WALLSTEP= 0.2000000000000000    
!DFMP2=  0.000000000000000    
!DFHFENERG=  0.000000000000000    
!SCSGRD=  0.000000000000000    
_CPUTOT= 0.7400000000000000    
_DMX= 0.3801053113949976E-04
_DMY= 0.2090337024967642E-04
_DMZ=-0.3792843666361561    
_EMP2= -40.24466195389969    
_ENERGR= -40.10733519817525    
_ENERGU= -40.23623321020402    
_ENERGY= -40.24466195389969    
_ENERGY_METHOD=RS2
_ENERGY_BASIS=cc-pVDZ
_GEOMETRY_METHOD=
_GEOMETRY_BASIS=
_ENERGY_AVRG= -40.10733519817524    
_ENUC=  11.92996130961005    
_GRADMETHOD=  9.000000000000000    
_NMRMETHOD=  0.000000000000000    
_NMRMAGNET=  0.000000000000000    
!GRID_FREEZE= -1.000000000000000    
!NEESE_INDEX=  0.000000000000000    
_ITERATIONS=  5.000000000000000    
_LASTNELEC=  2.000000000000000    
_LASTSPIN=  0.000000000000000    
_LASTSYM=  1.000000000000000    
_MPP_PROG=  1.000000000000000    
_MSNSTATES=  0.000000000000000    
_RS2PHASE=  0.000000000000000    
_IPROC_MPP=  0.000000000000000    
_IPROC_MPPX=  0.000000000000000    
_NPROC_MPP=  4.000000000000000    
_NPROC_MPPX=  4.000000000000000    
_NPROC_SMP=  1.000000000000000    
_NUMSTEP=  0.000000000000000    
_ORBITAL=  2140.200000000000    
_PI=  3.141592653589793    
!MCACT=  2.000000000000000    
!MCCLOSED=  4.000000000000000    
!MCFREEZE=  0.000000000000000    
!MCMS2=  0.000000000000000    
!MCNEL=  2.000000000000000    
!MCNSTSYM=  1.000000000000000    
!MCSTATE=  1.000000000000000    
!MCSYM=  1.000000000000000    
!MCWEIGHT=  1.000000000000000    
_SEIG_MIN= 0.1395773444174579E-01
_SEWPROP=TRUE
_STATUS=  1.000000000000000    
_SYSTOT= 0.3300000000000000    
_VERSION=  2022002.000000000    
_WALLTOT=  1.620000000000000    
_DATE=03-Jun-23
_LASTORB=MCSCF
_OUTPUT=/home/chimica2/cavallotti/qm/barrierless/vrc_autom/folders/ch3+h/dist_2.0/molpro.out
_PGROUP=C1
_TIME=08:59:35
_LIBMOL=/software/cinetica/molpro_2022.2/lib/
_VIGRDC=  0.000000000000000    
!VIBCNT=  0.000000000000000    
!RGHFCNT=  0.000000000000000    
!SURFREC=  0.000000000000000    
!XSURFREC=  0.000000000000000    
!XPOLYREC=  0.000000000000000    
!ROTREC=  0.000000000000000    
!POLYREC=  0.000000000000000    
!DIPREC=  0.000000000000000    
!DIP4DREC=  0.000000000000000    
!DIPROT=  0.000000000000000    
!DIP4DROT=  0.000000000000000    
!PTREC=  0.000000000000000    
!PT4DREC=  0.000000000000000    
!VSCFREC=  0.000000000000000    
!VCIREC=  0.000000000000000    
!PVCIREC=  0.000000000000000    
!VMP2REC=  0.000000000000000    
!VMCSCFREC=  0.000000000000000    
!VMRCIREC=  0.000000000000000    
!VIBSTATEREC=  0.000000000000000    
!VIBSTATECNT=  0.000000000000000    
!VIBINFO=  0.000000000000000    
!GAREC=  0.000000000000000    
!MCORB=  21402.00000000000    
!DEFCORE=  1.000000000000000    
!SCORE=  0.000000000000000    
!NEWMOL= -1.000000000000000    
!NEWSYM= -1.000000000000000    
_SLFILES=slscratch
_NGSSTO=  9.000000000000000    
_SIN=SIN
_COS=COS
_TAN=TAN
_ACOS=ACOS
_ASIN=ASIN
_ATAN=ATAN
_COSH=COSH
_SINH=SINH
_TANH=TANH
_ABS=ABS
_MOD=MOD
_ERF=ERF
_REFC=REFC
_ERFC=ERFC
_HYPOT=HYPOT
_J0=J0
_J1=J1
_JN=JN
_GAMMA=GAMMA
_LGAMMA=LGAMMA
_Y0=Y0
_Y1=Y1
_YN=YN
_EXP=EXP
_LOG=LOG
_LOG10=LOG10
_SQRT=SQRT
_INT=INT
_NINT=NINT
_MAX=MAX
_MIN=MIN
_COSMO=  0.000000000000000    
_COSMOIT=  0.000000000000000    
_COSMOES=  0.000000000000000    
_COSMOEDS=  0.000000000000000    
_COSMOEC=  0.000000000000000    
_COSMOEDCORR=  0.000000000000000    
_FEPSI=  1.000000000000000    
_SL_IsMM=  0.000000000000000    
_SL_NSYM=  1.000000000000000    
_SL_System_BitSw=  0.000000000000000    
_SL_Unique_atoms=  0.000000000000000    
_SL_GRAD=  0.000000000000000    
_SL_MAXUPD_Hess=  5.000000000000000    
_SL_N_PRINT_COD=  5.000000000000000    
_SL_PRINT_CODES=  0.000000000000000    
_SL_BasType=  0.000000000000000    
_SL_Energy_Pred=  0.000000000000000    
_SL_New_Coords=  0.000000000000000    
_SL_Total_Nuclea=  0.000000000000000    
_SL_Highest_Mltp=  0.000000000000000    
_SL_Ref_Geom=  0.000000000000000    
_SL_Symmetry_ope=  1.000000000000000    
_SL_agrad=  0.000000000000000    
_SL_GrdMax=  0.000000000000000    
_SL_GrdNorm=  0.000000000000000    
_SL_GrdRMS=  0.000000000000000    
_SL_Hss_Q=  0.000000000000000    
_SL_Hss_X=  0.000000000000000    
_SL_BMxOld=  0.000000000000000    
_SL_KtB=  0.000000000000000    
_SL_TROld=  0.000000000000000    
_SL_No_of_Intern=  0.000000000000000    
_SL_Hess=  0.000000000000000    
_SL_K=  0.000000000000000    
!LATTICE= -1.000000000000000    
!NEWLATTICE=  0.000000000000000    
!LATGRAD_VAR=FALSE
!SEW_LATTICE=  1.000000000000000    
!AIC_ONEEL=  0.000000000000000    
!LOCAL=  0.000000000000000    
!SAVEDOM= -1.000000000000000    
!RESTDOM= -1.000000000000000    
!SAVEDOM_HF= -1.000000000000000    
!RESTDOM_HF= -1.000000000000000    
!HESSREC=  0.000000000000000    
!FREQREC=  0.000000000000000    
!NMODREC=  0.000000000000000    
!GTASKS=  0.000000000000000    
!HTASKS=  0.000000000000000    
!SAVEDOM_EOM= -1.000000000000000    
!RESTDOM_EOM= -1.000000000000000    
!GRADSTATE= -1.000000000000000    
!DEBUG=  0.000000000000000    
!CFIT_CPHF=  0.000000000000000    
!RDOMAUX_CPHF=  0.000000000000000    
!THRAO_CPHF= 0.1000000000000000E-11
!THRMO_CPHF= 0.1000000000000000E-11
!THROV_CPHF= 0.1000000000000000E-11
!THRSW_CPHF= 0.1000000000000000E-11
!THRPROD_CPHF= 0.1000000000000000E-11
!THRAOPR_CPHF= 0.1000000000000000E-11
!CFIT_SCFGRD=  0.000000000000000    
!RDOMAUX_SCFGRD=  0.000000000000000    
!THRAO_SCFGRD= 0.1000000000000000E-11
!THRMO_SCFGRD= 0.1000000000000000E-11
!THROV_SCFGRD= 0.1000000000000000E-11
!THRSW_SCFGRD= 0.1000000000000000E-11
!THRPROD_SCFGRD= 0.1000000000000000E-11
!THRAOPR_SCFGRD= 0.1000000000000000E-11
!LOCFIT_SCF=  0.000000000000000    
!LOCFIT_MP2=  0.000000000000000    
_RIDOM=  0.000000000000000    
!CC2_METHOD=  0.000000000000000    
_BASIS2006=FALSE
_SVDDEL= -1.000000000000000    
_SVDDELA= -1.000000000000000    
_SVDDELP= -1.000000000000000    
_SVDDELF= -1.000000000000000    
_SVDDELS= -1.000000000000000    
_SVDDEL_ABS= -1.000000000000000    
_SVDDELA_ABS= -1.000000000000000    
_SVDDELP_ABS= -1.000000000000000    
_SVDDELF_ABS= -1.000000000000000    
_SVDDELS_ABS= -1.000000000000000    
_MAXBASIS=  0.000000000000000    
!OPT_CONICAL=  0.000000000000000    
!CLEARSP_JGRID=  0.000000000000000    
_GRDHYBR=  0.000000000000000    
_STATEGRAD=  1.000000000000000    
_4EXT_NDISKS=  1.000000000000000    
!EMBEDFLAG=  1.000000000000000    
!EMBED=FALSE
!EMBED_F12=FALSE
!EMBEDNUC=  0.000000000000000    
_EMBEDENERGY=  0.000000000000000    
!EMBED_DFC=FALSE
!NUM_VOIDS=  0.000000000000000    
_IBODY=  0.000000000000000    
_EMBE_CORR=  0.000000000000000    
!EMBED_PROJ=FALSE
!EMB_PROJ_ZMU=  1000000.000000000    
!CORRECTION_HF=  0.000000000000000    
!EMBED_AORB=  0.000000000000000    
!EMBED_NACORR=  0.000000000000000    
!EMBED_MP2=FALSE
!EMBED_TRUNC_PERTURBATION=FALSE
!EMBED_FROZEN=  0.000000000000000    
!EMBED_ACTIVE=  0.000000000000000    
_CHANGE_BASIS=FALSE
_RESTORE_BASIS=FALSE
_FIX_EMBED_GUESS=FALSE
_EMBED_SCF=FALSE
_HUZINAGA_T=FALSE
_HUZINAGA_F=FALSE
_HUZINAGA=FALSE
_HUZINAGA_CORRECT=FALSE
!FASTLATGRAD=  1.000000000000000    
!FASTVLAMBDA= -1.000000000000000    
!IFORCE= -1.000000000000000    
!USESYM= -1.000000000000000    
_SINDEX=  0.000000000000000    
_AVDOM_OSV=  0.000000000000000    
_AVDOM_PNO=  0.000000000000000    
_AVDOM_PAO=  0.000000000000000    
_AVDOM_LMO=  0.000000000000000    
_CC2OSV_FLAG=  0.000000000000000    
_EOMCCSD_CONV=FALSE
_TMADC2_FLAG=FALSE
_PROPADC2_FLAG=FALSE
_LEN_VirQ=  0.000000000000000    
_GRDCC2LR_FLAG=FALSE
_GRDADC2_FLAG=FALSE
_DMX_CC=-0.2053243542454730E-03
_DMY_CC=-0.1099915957766262E-03
_DMZ_CC=  2.646487886209488    
_DMX_NUC= 0.4491594200009373E-04
_DMY_NUC= 0.5705502999966684E-05
_DMZ_NUC=  1.014596892130000    
_RO_VGLOBAL=  0.000000000000000    
_OPT=FALSE
_FREQ=FALSE
_HESS=FALSE
_CMRCC_callName=EMPTY
_CMRCC_callCount=  0.000000000000000    
_GECCO_CIROOT=  1.000000000000000    
_SYM_CATION=  0.000000000000000    
_MON_A=FALSE
_MON_B=FALSE
R1=  1.079100000000000    
R2=  1.079100000000000    
R3=  1.079100000000000    
A2=  117.1143000000000    
A3=  117.1221000000000    
D3=  213.1119000000000    
DH1=  106.5501000000000    
ANG1=  99.88290000000001    
BB=  2.000000000000000    
GX1=-0.7591789851237735E-05
GY1=-0.9643562079442169E-06
GZ1=-0.1714893602689684    
GX2= -1.154133021421647    
GY2=  1.644336370308098    
GZ2=-0.5214893291288552    
GX3=  2.001117513858670    
GY3= 0.1775118298386392    
GZ3=-0.5212582484450687    
GX4=-0.8467501530440322    
GY4= -1.821742638632208    
GZ4=-0.5216822540609488    
GX5=-0.1438727105471105E-03
GY5=-0.9406987572840864E-04
GZ5=  3.607962885378726    
CBSEN= -40.24466195389969    
[Atoms] Angs
C     1    6        -0.0000040174       -0.0000005103       -0.0907482614
H     2    1        -0.6107408933        0.8701453342       -0.2759602687
H     3    1         1.0589457847        0.0939352150       -0.2758379861
H     4    1        -0.4480808843       -0.9640246885       -0.2760623602
H     5    1        -0.0000761342       -0.0000497796        1.9092517367
[GTO]
   1 0
 s    9  1.00
  0.6665000000D+04  0.6920001793D-03
  0.1000000000D+04  0.5329001381D-02
  0.2280000000D+03  0.2707700701D-01
  0.6471000000D+02  0.1017180264D+00
  0.2106000000D+02  0.2747400712D+00
  0.7495000000D+01  0.4485641162D+00
  0.2797000000D+01  0.2850740738D+00
  0.5215000000D+00  0.1520400394D-01
  0.1596000000D+00 -0.3191000827D-02
 s    9  1.00
  0.6665000000D+04 -0.1460000642D-03
  0.1000000000D+04 -0.1154000508D-02
  0.2280000000D+03 -0.5725002519D-02
  0.6471000000D+02 -0.2331201026D-01
  0.2106000000D+02 -0.6395502813D-01
  0.7495000000D+01 -0.1499810660D+00
  0.2797000000D+01 -0.1272620560D+00
  0.5215000000D+00  0.5445292395D+00
  0.1596000000D+00  0.5804962554D+00
 s    9  1.00
  0.6665000000D+04  0.0000000000D+00
  0.1000000000D+04  0.0000000000D+00
  0.2280000000D+03  0.0000000000D+00
  0.6471000000D+02  0.0000000000D+00
  0.2106000000D+02  0.0000000000D+00
  0.7495000000D+01  0.0000000000D+00
  0.2797000000D+01  0.0000000000D+00
  0.5215000000D+00  0.0000000000D+00
  0.1596000000D+00  0.1000000000D+01
 p    4  1.00
  0.9439000000D+01  0.3810902127D-01
  0.2002000000D+01  0.2094801169D+00
  0.5456000000D+00  0.5085572839D+00
  0.1517000000D+00  0.4688422617D+00
 p    4  1.00
  0.9439000000D+01  0.0000000000D+00
  0.2002000000D+01  0.0000000000D+00
  0.5456000000D+00  0.0000000000D+00
  0.1517000000D+00  0.1000000000D+01
 d    1  1.00
  0.5500000000D+00  0.1000000000D+01
  
   2 0
 s    4  1.00
  0.1301000000D+02  0.1968498999D-01
  0.1962000000D+01  0.1379769298D+00
  0.4446000000D+00  0.4781477569D+00
  0.1220000000D+00  0.5012397451D+00
 s    4  1.00
  0.1301000000D+02  0.0000000000D+00
  0.1962000000D+01  0.0000000000D+00
  0.4446000000D+00  0.0000000000D+00
  0.1220000000D+00  0.1000000000D+01
 p    1  1.00
  0.7270000000D+00  0.1000000000D+01
  
   3 0
 s    4  1.00
  0.1301000000D+02  0.1968498999D-01
  0.1962000000D+01  0.1379769298D+00
  0.4446000000D+00  0.4781477569D+00
  0.1220000000D+00  0.5012397451D+00
 s    4  1.00
  0.1301000000D+02  0.0000000000D+00
  0.1962000000D+01  0.0000000000D+00
  0.4446000000D+00  0.0000000000D+00
  0.1220000000D+00  0.1000000000D+01
 p    1  1.00
  0.7270000000D+00  0.1000000000D+01
  
   4 0
 s    4  1.00
  0.1301000000D+02  0.1968498999D-01
  0.1962000000D+01  0.1379769298D+00
  0.4446000000D+00  0.4781477569D+00
  0.1220000000D+00  0.5012397451D+00
 s    4  1.00
  0.1301000000D+02  0.0000000000D+00
  0.1962000000D+01  0.0000000000D+00
  0.4446000000D+00  0.0000000000D+00
  0.1220000000D+00  0.1000000000D+01
 p    1  1.00
  0.7270000000D+00  0.1000000000D+01
  
   5 0
 s    4  1.00
  0.1301000000D+02  0.1968498999D-01
  0.1962000000D+01  0.1379769298D+00
  0.4446000000D+00  0.4781477569D+00
  0.1220000000D+00  0.5012397451D+00
 s    4  1.00
  0.1301000000D+02  0.0000000000D+00
  0.1962000000D+01  0.0000000000D+00
  0.4446000000D+00  0.0000000000D+00
  0.1220000000D+00  0.1000000000D+01
 p    1  1.00
  0.7270000000D+00  0.1000000000D+01


[MO]
 Sym=      1.1
 Ene=     -11.2622
 Spin= Alpha
 Occup=    2.000000
1 1.00139888070141
2 0.007727985871521
3 -0.008542202936770
4 0.000000072148726
5 0.000000032729517
6 -0.000449925437790
7 -0.000000149137016
8 -0.000000052492484
9 -0.000139815039299
10 0.000368380237826
11 0.000368616588479
12 -0.000736996826306
13 0.000000003680429
14 0.000000114082569
15 0.000000073927634
16 -0.000315934941113
17 0.001435834687389
18 -0.000245982844670
19 0.000350400816531
20 -0.000117806009195
21 -0.000315712886647
22 0.001435781015017
23 0.000426419643755
24 0.000037822340146
25 -0.000117729819154
26 -0.000316014775865
27 0.001435849578802
28 -0.000180480827617
29 -0.000388222904018
30 -0.000117854582835
31 0.000074943173133
32 0.000274031630472
33 0.000000008088319
34 0.000000004960617
35 -0.000342158872633
 Sym=      2.1
 Ene=      -0.9164
 Spin= Alpha
 Occup=    2.000000
1 -0.025729110426041
2 0.75596887448982
3 -0.15648891899344
4 0.000018207342049
5 0.000008223866339
6 -0.094835739679408
7 -0.000007064625403
8 -0.000002509448467
9 0.017992623169832
10 0.001684714434547
11 0.001684452778245
12 -0.003369167212792
13 -0.000000013749570
14 0.000000498642365
15 0.000000350537279
16 0.35468073160979
17 -0.14868604460959
18 0.016345814605514
19 -0.023287283390540
20 0.002362831968127
21 0.35468500497657
22 -0.14868578691999
23 -0.028340265137865
24 -0.002513747144955
25 0.002359420820735
26 0.35468016821246
27 -0.14868632257347
28 0.011992544460097
29 0.025800247887702
30 0.002365654335271
31 0.013456710000693
32 -0.014049680422315
33 0.000000281933946
34 0.000000157363141
35 -0.003802063169505
 Sym=      3.1
 Ene=      -0.5796
 Spin= Alpha
 Occup=    2.000000
1 0.000000008305268
2 -0.000004020406081
3 -0.000000247768963
4 0.002363563312024
5 0.65177100918951
6 0.000040317997287
7 -0.000448588344509
8 -0.12369561529421
9 -0.000008178746068
10 0.005518213058342
11 -0.005516966780980
12 -0.000001246277362
13 -0.023112343187909
14 -0.000043912797961
15 -0.011886107585894
16 0.51748644574457
17 -0.14982324613107
18 0.016264621646370
19 -0.010134670618420
20 0.004055922371988
21 0.058287402644781
22 -0.016875504257485
23 -0.003120264935816
24 0.012690295804145
25 0.000457162264467
26 -0.57577245434474
27 0.16669800585218
28 -0.013191347423439
29 -0.015510699224437
30 -0.004514120320447
31 0.000002270612087
32 -0.000001455032947
33 0.000007397412082
34 0.002052340628298
35 -0.000000341120710
 Sym=      4.1
 Ene=      -0.5796
 Spin= Alpha
 Occup=    2.000000
1 0.000000134026042
2 -0.000014167532221
3 -0.000001413429483
4 0.65177360455798
5 -0.002363681742709
6 0.000064467878004
7 -0.12368539183163
8 0.000448528160436
9 -0.000012651249615
10 0.020021610232249
11 -0.020019497081670
12 -0.000002113150579
13 0.006373394270196
14 -0.011880579685167
15 0.000042275905133
16 -0.36607020926147
17 0.10597996221093
18 0.001499506665831
19 0.016297240946393
20 -0.002867313985645
21 0.63119023324556
22 -0.18273508911431
23 -0.021325484763430
24 -0.003089367656040
25 0.004943263891439
26 -0.26511541128195
27 0.076752677883888
28 0.006875933634481
29 -0.013160920418661
30 -0.002077614101440
31 0.000003508700455
32 -0.000002184736262
33 0.002052687799444
34 -0.000007489353583
35 -0.000000517043366
 Sym=      5.1
 Ene=      -0.3315
 Spin= Alpha
 Occup=    1.795666
1 -0.003696611495359
2 0.069215937481792
3 0.043351678715384
4 -0.000057632269610
5 -0.000035963397042
6 0.53154225395037
7 -0.000002990044904
8 -0.000001906040149
9 0.038778731907132
10 -0.009589921821308
11 -0.009590007583545
12 0.019179929404853
13 0.000000090282063
14 -0.000001429568501
15 -0.000001097487512
16 -0.072054463729417
17 0.012545280543143
18 -0.001346178528633
19 0.001915012515813
20 0.011207043262738
21 -0.072055711899580
22 0.012544047843599
23 0.002330341501594
24 0.000205991984019
25 0.011207273622809
26 -0.072051391838232
27 0.012546421471545
28 -0.000987990637203
29 -0.002123321273325
30 0.011206740088210
31 0.62314267866969
32 0.028123539783893
33 0.000000278934304
34 0.000000182084200
35 -0.007508261658957
 Sym=      6.1
 Ene=       0.1063
 Spin= Alpha
 Occup=    0.204334
1 -0.000627909363449
2 -0.21265073360408
3 -0.077750496777112
4 0.000072806010020
5 0.000045604168011
6 -0.76699120443991
7 0.000005312432816
8 0.000003008102031
9 -0.045274769987484
10 0.011366545779286
11 0.011367353843668
12 -0.022733899622955
13 0.000000010749724
14 0.000003210426488
15 0.000002263661117
16 0.037234938172498
17 -0.012199312122671
18 -0.000255284651252
19 0.000366356714719
20 -0.013872796843157
21 0.037222362068263
22 -0.012199242317957
23 0.000446774005625
24 0.000040298390287
25 -0.013872643414388
26 0.037243073091559
27 -0.012199681320176
28 -0.000186748496767
29 -0.000403807590951
30 -0.013872744448199
31 0.97154946531389
32 -0.14170556489771
33 -0.000000110770992
34 -0.000000094549336
35 0.009241273751592
 Sym=      7.1
 Ene=       0.2018
 Spin= Alpha
 Occup=    0.000000
1 0.085086726673702
2 -0.17562515902141
3 -2.11647189135584
4 -0.000012288367753
5 -0.000007154511821
6 0.14140667165096
7 -0.000042600299959
8 -0.000018268998852
9 0.19164038259052
10 -0.009767026862493
11 -0.009771219137891
12 0.019538246000384
13 -0.000000036501822
14 -0.000003221237320
15 -0.000002332143340
16 0.056249473406319
17 1.03018061926737
18 0.009316678148358
19 -0.013271297565497
20 0.006391457179306
21 0.056243020747871
22 1.03016989953745
23 -0.016151881359352
24 -0.001432591563264
25 0.006389010919666
26 0.056248478904479
27 1.03018956105052
28 0.006835532563182
29 0.014703317767244
30 0.006393215914329
31 -0.10660274813451
32 -0.007711149818795
33 0.000000744884686
34 0.000000375705143
35 -0.003224022192282
 Sym=      8.1
 Ene=       0.2665
 Spin= Alpha
 Occup=    0.000000
1 -0.000001155610580
2 -0.000004730422797
3 0.000015943198477
4 0.011578852456467
5 0.45372317768094
6 0.000029052640048
7 0.031014722805003
8 1.21539097301109
9 0.000085934973931
10 0.005408207010068
11 -0.005405770588062
12 -0.000002436422006
13 -0.020856472474996
14 -0.000412646457561
15 -0.016147470861065
16 -0.031243235487883
17 -1.73764303446532
18 -0.011169986360315
19 0.019175580425202
20 -0.001910976791162
21 -0.004420831000556
22 -0.24592878731076
23 0.002841495397661
24 0.003388615133911
25 -0.000270152346166
26 0.035670938293371
27 1.98354943932651
28 0.009501976123824
29 0.023418002109850
30 0.002183603261721
31 0.000005924913689
32 -0.000008851632031
33 -0.000053961247580
34 -0.002123292573399
35 0.000000636296458
 Sym=      9.1
 Ene=       0.2665
 Spin= Alpha
 Occup=    0.000000
1 0.000002637764090
2 0.000013426561604
3 -0.000037914866373
4 -0.45373000563163
5 0.011578819935767
6 -0.000044158494006
7 -1.21532814240392
8 0.031015803598573
9 -0.000131012647174
10 -0.018067585954988
11 0.018062610185024
12 0.000004975769964
13 -0.006245320977838
14 0.016140398410573
15 -0.000411321476226
16 -0.023174483848833
17 -1.28713636433201
18 -0.011480827841689
19 0.011952836212802
20 -0.001415977641003
21 0.038659356963017
22 2.14839387224702
23 -0.027265425037873
24 -0.002059374831891
25 0.002360574865230
26 -0.015509841142983
27 -0.86119483742570
28 -0.007238879269823
29 -0.008719994179784
30 -0.000948372486866
31 -0.000010594460993
32 0.000014540941068
33 0.002123798039654
34 -0.000054421962585
35 -0.000001343032414
 Sym=     10.1
 Ene=       0.5969
 Spin= Alpha
 Occup=    0.000000
1 0.000002371648533
2 -0.000027191482114
3 0.000000600288137
4 -0.45043743299620
5 -0.001181411496179
6 -0.000109592350728
7 1.63067474097529
8 0.004277087715259
9 0.000376770984393
10 -0.096244981212859
11 0.096257121467839
12 -0.000012140254980
13 -0.029894267911414
14 0.035209641502985
15 0.000096534371183
16 0.75089754209827
17 -0.26751031561495
18 0.037508155393095
19 0.030077804859235
20 -0.005780322005387
21 -1.30664304963281
22 0.46541697912645
23 -0.004846563855873
24 -0.005465486138650
25 0.010053983566294
26 0.55614283377184
27 -0.19813515714615
28 0.047101032740373
29 -0.024403143293074
30 -0.004283381205718
31 0.000325911441309
32 -0.000477788873850
33 0.055546708837273
34 0.000146303264104
35 0.000004042259005
 Sym=     11.1
 Ene=       0.5970
 Spin= Alpha
 Occup=    0.000000
1 -0.000000932669395
2 -0.000016299365930
3 0.000007502670273
4 0.001181367705144
5 -0.45044719032932
6 -0.000043582773753
7 -0.004277110814374
8 1.63088351054721
9 0.000180644750063
10 -0.025885073512616
11 0.025886435740725
12 -0.000001362228109
13 0.11113597025090
14 -0.000088242931110
15 0.035242141491115
16 -1.07544443651663
17 0.38289907968362
18 0.029932916638221
19 0.015672312132524
20 0.008285252816665
21 -0.11239940946935
22 0.040015294701465
23 -0.005602848668937
24 0.058040007152554
25 0.000866894429036
26 1.18797125494327
27 -0.42296913289548
28 -0.024539352978657
29 0.006075846118073
30 -0.009153825244949
31 0.000150710547769
32 -0.000224076229345
33 -0.000145093014554
34 0.055557238235902
35 0.000000324748450
 Sym=     12.1
 Ene=       0.6354
 Spin= Alpha
 Occup=    0.000000
1 -0.074317745638395
2 -0.40019454039307
3 0.40039948003598
4 0.000119622390280
5 0.000056748068314
6 -0.42315756294071
7 -0.000436446848834
8 -0.000199343853356
9 1.06178234379277
10 0.001490390080332
11 0.001439033934482
12 -0.002929424014815
13 -0.000005928489623
14 -0.000002839320168
15 -0.000000287895540
16 0.19275396814037
17 0.017311167388968
18 -0.010346408506841
19 0.014715915182118
20 -0.040285872687613
21 0.19309858138943
22 0.017230518197088
23 0.017925766760241
24 0.001585632757427
25 -0.040292238654284
26 0.19259134675295
27 0.017353134898412
28 -0.007588626685097
29 -0.016303123330843
30 -0.040282345602739
31 1.76208447441092
32 -2.47000166673474
33 -0.000012519435122
34 -0.000005150202955
35 -0.020762169019453
 Sym=     13.1
 Ene=       0.7090
 Spin= Alpha
 Occup=    0.000000
1 0.12027128007976
2 0.23499978392704
3 -0.88048276804910
4 0.000138079670989
5 0.000063206091357
6 -0.71177806071901
7 -0.000331227014122
8 -0.000117795724652
9 0.97422960719372
10 0.11649797250818
11 0.11651662987343
12 -0.23301460238161
13 0.000001826523297
14 0.000030383677062
15 0.000021406101630
16 0.89126795902141
17 -0.57437971948434
18 -0.039208953367577
19 0.055856976781849
20 -0.003416665679626
21 0.89138393372780
22 -0.57429167993268
23 0.067967884727490
24 0.006029385295375
25 -0.003410842809001
26 0.89126029565891
27 -0.57440587674627
28 -0.028769110491821
29 -0.061887421674419
30 -0.003423112603062
31 -0.79367914158279
32 0.85330547280440
33 -0.000011156695642
34 -0.000004051918663
35 0.11457695276102
 Sym=     14.1
 Ene=       0.8441
 Spin= Alpha
 Occup=    0.000000
1 0.086472915367467
2 0.59419412401974
3 -1.06390114786579
4 0.000062140898648
5 0.000075396115326
6 -1.20737092306815
7 0.000027084687530
8 -0.000066879119105
9 1.50599742343460
10 -0.091787315845295
11 -0.091808963594974
12 0.18359627944027
13 0.000007819673922
14 -0.000033567468218
15 -0.000021054176746
16 -0.62093926886577
17 0.78470740038430
18 0.081253681827176
19 -0.11573229781303
20 -0.014537912540411
21 -0.62100661263840
22 0.78459715794468
23 -0.14083641717780
24 -0.012485164203494
25 -0.014558197244172
26 -0.62088322203443
27 0.78466319496622
28 0.059611531555365
29 0.12822530860141
30 -0.014523778586440
31 -0.53909016259357
32 0.14213801117233
33 0.000006063573295
34 0.000001624254625
35 -0.072115760469870
 Sym=     15.1
 Ene=       0.8871
 Spin= Alpha
 Occup=    0.000000
1 0.000010270244878
2 0.000038008342583
3 -0.000047140406673
4 -1.23557383505017
5 -0.009729212122268
6 -0.000112315380146
7 2.28177302925013
8 0.017967010881283
9 0.000215558018588
10 0.27697594061934
11 -0.27693767733294
12 -0.000038263286402
13 0.084220865257330
14 -0.097095931709422
15 -0.000776834479707
16 -0.34610073546674
17 1.14936724556021
18 0.038007572936703
19 -0.16736052817687
20 0.031954892315987
21 0.60737725341720
22 -2.01675529517139
23 0.27703603668996
24 0.030962618619013
25 -0.056041376033429
26 -0.26115076348317
27 0.86727845343775
28 -0.014233181527969
29 0.13876662888716
30 0.024125879805833
31 -0.000038274554430
32 0.000051180504742
33 0.030760319792520
34 0.000242980803389
35 0.000016199212600
 Sym=     16.1
 Ene=       0.8871
 Spin= Alpha
 Occup=    0.000000
1 0.000007925851410
2 0.000037184778633
3 -0.000058385035634
4 0.009729624209610
5 -1.23556679304344
6 -0.000093330179598
7 -0.017968548991031
8 2.28180020126335
9 0.000163548720322
10 0.072928403125172
11 -0.072914175005440
12 -0.000014228119731
13 -0.31976178076734
14 0.000752977985126
15 -0.097180107504999
16 0.50147083143478
17 -1.66510726849854
18 -0.16892819000237
19 0.16253697416028
20 -0.046301535430176
21 0.049051282705171
22 -0.16285900052560
23 0.029376824581140
24 -0.076485641728828
25 -0.004528989746469
26 -0.55051686393743
27 1.82798508052097
28 0.13718251171108
29 0.21477810658164
30 0.050853188992040
31 -0.000031631315471
32 0.000029078344903
33 -0.000241485216188
34 0.030763617036674
35 0.000005892517407
 Sym=     17.1
 Ene=       1.0898
 Spin= Alpha
 Occup=    0.000000
1 -0.74315159613533
2 -3.38608528665594
3 5.62783260890649
4 -0.000010215789449
5 -0.000003476951145
6 -0.25021699261469
7 0.000114727288342
8 0.000047374693488
9 0.033385713085190
10 -0.013601417674341
11 -0.013571628208018
12 0.027173045882358
13 0.000000433036783
14 0.000006959363674
15 -0.000001061704991
16 -0.15351351604866
17 -0.78243556200882
18 -0.087726102954552
19 0.12498981953015
20 -0.050417175470849
21 -0.15352908405408
22 -0.78248120650181
23 0.15211368908345
24 0.013495750270100
25 -0.050384656788877
26 -0.15351294789713
27 -0.78240448491724
28 -0.064360845785564
29 -0.13846817461821
30 -0.050434713615651
31 -0.58404704745443
32 0.41294965123099
33 0.000004342220736
34 0.000000772525433
35 -0.20925873807366
 Sym=     18.1
 Ene=       1.1849
 Spin= Alpha
 Occup=    0.000000
1 0.000010019837300
2 0.000041028591010
3 -0.000076506023645
4 -0.001258814591975
5 0.084435043884744
6 -0.000004509949181
7 0.000107511632310
8 -0.007288082520603
9 0.000009215501351
10 0.039299174606177
11 -0.039361016761353
12 0.000061842155176
13 -0.17742764163828
14 -0.008761372908973
15 0.58704995414887
16 -0.079278079036170
17 0.059052934080993
18 -0.091491589336915
19 -0.031699550000221
20 0.29669115940775
21 -0.007034246232093
22 0.005252636734857
23 0.016933808402089
24 -0.16418779697931
25 0.026357530010351
26 0.086345177258731
27 -0.064292342434788
28 0.077538973347441
29 -0.004045896507761
30 -0.32305341632212
31 -0.000008614924196
32 0.000006142536294
33 -0.002409414935710
34 0.16142690626141
35 -0.000015276020346
 Sym=     19.1
 Ene=       1.1849
 Spin= Alpha
 Occup=    0.000000
1 0.000025444839421
2 0.000108169732186
3 -0.000189850142072
4 0.084423095205432
5 0.001259244355196
6 -0.000009145625571
7 -0.007281591123880
8 -0.000109752869927
9 0.000016168395443
10 0.15349828168175
11 -0.15358793657660
12 0.000089654894846
13 0.045334345014820
14 0.58711185962421
15 0.008748055633802
16 0.053924883414641
17 -0.040122008315525
18 -0.10158251998106
19 -0.093415025119443
20 -0.20174894534700
21 -0.095587651318758
22 0.071208566302262
23 0.030862901589113
24 0.014922164817750
25 0.35783514456771
26 0.041723815697757
27 -0.031039175089418
28 -0.12919866911079
29 0.075511355803466
30 -0.15607828963640
31 -0.000001640731472
32 -0.000000666882623
33 0.16144877623182
34 0.002405397165188
35 -0.000017393219667
 Sym=     20.1
 Ene=       1.5408
 Spin= Alpha
 Occup=    0.000000
1 -0.000053038645614
2 -0.000208076922235
3 0.000396979876222
4 -0.000855858852755
5 0.18388973444989
6 -0.000020191979841
7 0.000034707330321