[Molden Format]
[Molpro variables]
_NUMVAR=  1056.000000000000    
_AVOGAD= 0.6022140760000000E+24
_BOLTZ= 0.1380649000000000E-22
_CLIGHTSI=  299792458.0000000    
_JOULE= 0.4359744722207100E-17
_JPCAL=  4.184000000000000    
_PLANCK= 0.6626070150000000E-33
_BOHR= 0.5291772109030000E-10
_ECHARG= 0.1602176634000000E-18
_ENULL= 0.8854187812800001E-11
_MU= 0.1660539066600000E-26
_EMASS= 0.9109383701500001E-30
_AMU2AU=  1822.888486217313    
_CLIGHT=  29979245800.00000    
_EV= 0.3674932217565494E-01
_KJOULE= 0.3808798847133432E-03
_KJOULE/MOL= 0.3808798847133432E-03
_CM= 0.4556335252912009E-05
_CM-1= 0.4556335252912009E-05
_DEB2SI= 0.3335640951981520E-29
_KCAL= 0.1593601437640628E-02
_KCAL/MOL= 0.1593601437640628E-02
_KELVIN= 0.3166811563455608E-05
_HERTZ= 0.1519829846057038E-15
_HZ= 0.1519829846057038E-15
_TOA= 0.5291772109030000    
_TOANG= 0.5291772109030000    
_TORAD= 0.1745329251994330E-01
_TOCM=  219474.6313631965    
_TODEBYE=  2.541746473194078    
_TOE= 0.4803204712570263E-09
_TOEV=  27.21138624598803    
_TOHERTZ=  6579683920501656.    
_TOHZ=  6579683920501656.    
_TOK=  315775.0248040668    
_TOKCAL=  627.5094740630558    
_TOKELVIN=  315775.0248040668    
_TOKJ=  2625.499639479825    
_TOKJOULE=  2625.499639479825    
_TOKG= 0.1660539066600000E-26
_ANG=  1.889726124625770    
_ANGSTROM=  1.889726124625770    
_RPAREF=  0.000000000000000    
_RPADISS=  0.000000000000000    
_IGNORE_UNDEF=  2.000000000000000    
_STRICTCHECK=  0.000000000000000    
!SEWARD=  0.000000000000000    
!MULTI=  0.000000000000000    
!DFMULTI=  0.000000000000000    
_SEW_ONEEL=  0.000000000000000    
_CPPDONE=FALSE
_DKROLL_DONE=  0.000000000000000    
_FNUC_DONE=  0.000000000000000    
_FOCKDONE=  0.000000000000000    
_GRADONE=FALSE
_HESSDONE=FALSE
_INTDONE=TRUE
_SCFDONE=FALSE
_MODUL_BLOCK=FALSE
_MODUL_CUDA=FALSE
_MODUL_SLATER=FALSE
_MODUL_MRCC=TRUE
_MODUL_NBO6=FALSE
_MODUL_NECI=FALSE
_MODUL_AIMS=TRUE
_MODUL_GECCO=FALSE
_ISWINDOWS=FALSE
_MRCC_EXEC=/software/cinetica/mrcc/bin/dmrcc
_FITC_AO_SAVED=FALSE
_FITC_MO_SAVED=FALSE
_SHARED_FS=TRUE
_LSTYP=SEWARD
_INTYP=INTS
_GEOMTYP=ZMAT
_GRADTYP=ALASKA
_DIRECT=FALSE
_DKHO= -1.000000000000000    
_FNUC=  0.000000000000000    
_SYNCM=  0.000000000000000    
_BASIS=CC-PVDZ
_ZORIENT=  1.000000000000000    
!ZORIENT=  0.000000000000000    
_NELEC=  18.00000000000000    
!SPIN=  0.000000000000000    
_QSDSTEP=  0.000000000000000    
_QSDIRC=  0.000000000000000    
_PROGRAM=RS2
_CPUSTEP= 0.1500000000000001    
_SYSSTEP= 0.5000000000000004E-01
_WALLSTEP= 0.4600000000000000    
!DFMP2=  0.000000000000000    
!DFHFENERG=  0.000000000000000    
!SCSGRD=  0.000000000000000    
_CPUTOT=  1.060000000000000    
_DMX= 0.4622665056163975E-03
_DMY= 0.2808955249323226E-03
_DMZ=-0.8319383571879328E-04
_EMP2= -79.39542599335681    
_ENERGR= -79.12498209893603    
_ENERGU= -79.37863423084140    
_ENERGY= -79.39542599335681    
_ENERGY_METHOD=RS2
_ENERGY_BASIS=cc-pVDZ
_GEOMETRY_METHOD=
_GEOMETRY_BASIS=
_ENERGY_AVRG= -79.12498209893609    
_ENUC=  32.22258416997982    
_GRADMETHOD=  9.000000000000000    
_NMRMETHOD=  0.000000000000000    
_NMRMAGNET=  0.000000000000000    
!GRID_FREEZE= -1.000000000000000    
!NEESE_INDEX=  0.000000000000000    
_ITERATIONS=  4.000000000000000    
_LASTNELEC=  2.000000000000000    
_LASTSPIN=  0.000000000000000    
_LASTSYM=  1.000000000000000    
_MPP_PROG=  1.000000000000000    
_MSNSTATES=  0.000000000000000    
_RS2PHASE=  0.000000000000000    
_IPROC_MPP=  0.000000000000000    
_IPROC_MPPX=  0.000000000000000    
_NPROC_MPP=  4.000000000000000    
_NPROC_MPPX=  4.000000000000000    
_NPROC_SMP=  1.000000000000000    
_NUMSTEP=  0.000000000000000    
_ORBITAL=  2140.200000000000    
_PI=  3.141592653589793    
!MCACT=  2.000000000000000    
!MCCLOSED=  8.000000000000000    
!MCFREEZE=  0.000000000000000    
!MCMS2=  0.000000000000000    
!MCNEL=  2.000000000000000    
!MCNSTSYM=  1.000000000000000    
!MCSTATE=  1.000000000000000    
!MCSYM=  1.000000000000000    
!MCWEIGHT=  1.000000000000000    
_SEIG_MIN= 0.1370524236490755E-01
_SEWPROP=TRUE
_STATUS=  1.000000000000000    
_SYSTOT= 0.4300000000000000    
_VERSION=  2022002.000000000    
_WALLTOT=  2.600000000000000    
_DATE=27-May-23
_LASTORB=MCSCF
_OUTPUT=/home/chimica2/cavallotti/qm/barrierless/vrc_autom/folders/ch3+ch3/dist_3.2/molpro.out
_PGROUP=C1
_TIME=09:31:00
_LIBMOL=/software/cinetica/molpro_2022.2/lib/
_VIGRDC=  0.000000000000000    
!VIBCNT=  0.000000000000000    
!RGHFCNT=  0.000000000000000    
!SURFREC=  0.000000000000000    
!XSURFREC=  0.000000000000000    
!XPOLYREC=  0.000000000000000    
!ROTREC=  0.000000000000000    
!POLYREC=  0.000000000000000    
!DIPREC=  0.000000000000000    
!DIP4DREC=  0.000000000000000    
!DIPROT=  0.000000000000000    
!DIP4DROT=  0.000000000000000    
!PTREC=  0.000000000000000    
!PT4DREC=  0.000000000000000    
!VSCFREC=  0.000000000000000    
!VCIREC=  0.000000000000000    
!PVCIREC=  0.000000000000000    
!VMP2REC=  0.000000000000000    
!VMCSCFREC=  0.000000000000000    
!VMRCIREC=  0.000000000000000    
!VIBSTATEREC=  0.000000000000000    
!VIBSTATECNT=  0.000000000000000    
!VIBINFO=  0.000000000000000    
!GAREC=  0.000000000000000    
!MCORB=  21402.00000000000    
!DEFCORE=  2.000000000000000    
!SCORE=  0.000000000000000    
!NEWMOL= -1.000000000000000    
!NEWSYM= -1.000000000000000    
_SLFILES=slscratch
_NGSSTO=  9.000000000000000    
_SIN=SIN
_COS=COS
_TAN=TAN
_ACOS=ACOS
_ASIN=ASIN
_ATAN=ATAN
_COSH=COSH
_SINH=SINH
_TANH=TANH
_ABS=ABS
_MOD=MOD
_ERF=ERF
_REFC=REFC
_ERFC=ERFC
_HYPOT=HYPOT
_J0=J0
_J1=J1
_JN=JN
_GAMMA=GAMMA
_LGAMMA=LGAMMA
_Y0=Y0
_Y1=Y1
_YN=YN
_EXP=EXP
_LOG=LOG
_LOG10=LOG10
_SQRT=SQRT
_INT=INT
_NINT=NINT
_MAX=MAX
_MIN=MIN
_COSMO=  0.000000000000000    
_COSMOIT=  0.000000000000000    
_COSMOES=  0.000000000000000    
_COSMOEDS=  0.000000000000000    
_COSMOEC=  0.000000000000000    
_COSMOEDCORR=  0.000000000000000    
_FEPSI=  1.000000000000000    
_SL_IsMM=  0.000000000000000    
_SL_NSYM=  1.000000000000000    
_SL_System_BitSw=  0.000000000000000    
_SL_Unique_atoms=  0.000000000000000    
_SL_GRAD=  0.000000000000000    
_SL_MAXUPD_Hess=  5.000000000000000    
_SL_N_PRINT_COD=  5.000000000000000    
_SL_PRINT_CODES=  0.000000000000000    
_SL_BasType=  0.000000000000000    
_SL_Energy_Pred=  0.000000000000000    
_SL_New_Coords=  0.000000000000000    
_SL_Total_Nuclea=  0.000000000000000    
_SL_Highest_Mltp=  0.000000000000000    
_SL_Ref_Geom=  0.000000000000000    
_SL_Symmetry_ope=  1.000000000000000    
_SL_agrad=  0.000000000000000    
_SL_GrdMax=  0.000000000000000    
_SL_GrdNorm=  0.000000000000000    
_SL_GrdRMS=  0.000000000000000    
_SL_Hss_Q=  0.000000000000000    
_SL_Hss_X=  0.000000000000000    
_SL_BMxOld=  0.000000000000000    
_SL_KtB=  0.000000000000000    
_SL_TROld=  0.000000000000000    
_SL_No_of_Intern=  0.000000000000000    
_SL_Hess=  0.000000000000000    
_SL_K=  0.000000000000000    
!LATTICE= -1.000000000000000    
!NEWLATTICE=  0.000000000000000    
!LATGRAD_VAR=FALSE
!SEW_LATTICE=  1.000000000000000    
!AIC_ONEEL=  0.000000000000000    
!LOCAL=  0.000000000000000    
!SAVEDOM= -1.000000000000000    
!RESTDOM= -1.000000000000000    
!SAVEDOM_HF= -1.000000000000000    
!RESTDOM_HF= -1.000000000000000    
!HESSREC=  0.000000000000000    
!FREQREC=  0.000000000000000    
!NMODREC=  0.000000000000000    
!GTASKS=  0.000000000000000    
!HTASKS=  0.000000000000000    
!SAVEDOM_EOM= -1.000000000000000    
!RESTDOM_EOM= -1.000000000000000    
!GRADSTATE= -1.000000000000000    
!DEBUG=  0.000000000000000    
!CFIT_CPHF=  0.000000000000000    
!RDOMAUX_CPHF=  0.000000000000000    
!THRAO_CPHF= 0.1000000000000000E-11
!THRMO_CPHF= 0.1000000000000000E-11
!THROV_CPHF= 0.1000000000000000E-11
!THRSW_CPHF= 0.1000000000000000E-11
!THRPROD_CPHF= 0.1000000000000000E-11
!THRAOPR_CPHF= 0.1000000000000000E-11
!CFIT_SCFGRD=  0.000000000000000    
!RDOMAUX_SCFGRD=  0.000000000000000    
!THRAO_SCFGRD= 0.1000000000000000E-11
!THRMO_SCFGRD= 0.1000000000000000E-11
!THROV_SCFGRD= 0.1000000000000000E-11
!THRSW_SCFGRD= 0.1000000000000000E-11
!THRPROD_SCFGRD= 0.1000000000000000E-11
!THRAOPR_SCFGRD= 0.1000000000000000E-11
!LOCFIT_SCF=  0.000000000000000    
!LOCFIT_MP2=  0.000000000000000    
_RIDOM=  0.000000000000000    
!CC2_METHOD=  0.000000000000000    
_BASIS2006=FALSE
_SVDDEL= -1.000000000000000    
_SVDDELA= -1.000000000000000    
_SVDDELP= -1.000000000000000    
_SVDDELF= -1.000000000000000    
_SVDDELS= -1.000000000000000    
_SVDDEL_ABS= -1.000000000000000    
_SVDDELA_ABS= -1.000000000000000    
_SVDDELP_ABS= -1.000000000000000    
_SVDDELF_ABS= -1.000000000000000    
_SVDDELS_ABS= -1.000000000000000    
_MAXBASIS=  0.000000000000000    
!OPT_CONICAL=  0.000000000000000    
!CLEARSP_JGRID=  0.000000000000000    
_GRDHYBR=  0.000000000000000    
_STATEGRAD=  1.000000000000000    
_4EXT_NDISKS=  1.000000000000000    
!EMBEDFLAG=  1.000000000000000    
!EMBED=FALSE
!EMBED_F12=FALSE
!EMBEDNUC=  0.000000000000000    
_EMBEDENERGY=  0.000000000000000    
!EMBED_DFC=FALSE
!NUM_VOIDS=  0.000000000000000    
_IBODY=  0.000000000000000    
_EMBE_CORR=  0.000000000000000    
!EMBED_PROJ=FALSE
!EMB_PROJ_ZMU=  1000000.000000000    
!CORRECTION_HF=  0.000000000000000    
!EMBED_AORB=  0.000000000000000    
!EMBED_NACORR=  0.000000000000000    
!EMBED_MP2=FALSE
!EMBED_TRUNC_PERTURBATION=FALSE
!EMBED_FROZEN=  0.000000000000000    
!EMBED_ACTIVE=  0.000000000000000    
_CHANGE_BASIS=FALSE
_RESTORE_BASIS=FALSE
_FIX_EMBED_GUESS=FALSE
_EMBED_SCF=FALSE
_HUZINAGA_T=FALSE
_HUZINAGA_F=FALSE
_HUZINAGA=FALSE
_HUZINAGA_CORRECT=FALSE
!FASTLATGRAD=  1.000000000000000    
!FASTVLAMBDA= -1.000000000000000    
!IFORCE= -1.000000000000000    
!USESYM= -1.000000000000000    
_SINDEX=  0.000000000000000    
_AVDOM_OSV=  0.000000000000000    
_AVDOM_PNO=  0.000000000000000    
_AVDOM_PAO=  0.000000000000000    
_AVDOM_LMO=  0.000000000000000    
_CC2OSV_FLAG=  0.000000000000000    
_EOMCCSD_CONV=FALSE
_TMADC2_FLAG=FALSE
_PROPADC2_FLAG=FALSE
_LEN_VirQ=  0.000000000000000    
_GRDCC2LR_FLAG=FALSE
_GRDADC2_FLAG=FALSE
_DMX_CC=-0.2557220399337146E-02
_DMY_CC=-0.1003554740223400E-02
_DMZ_CC= 0.3853814518786081E-03
_DMX_NUC= 0.1940468715999843E-02
_DMY_NUC= 0.5342147270002151E-03
_DMZ_NUC=-0.2333388670012759E-03
_RO_VGLOBAL=  0.000000000000000    
_OPT=FALSE
_FREQ=FALSE
_HESS=FALSE
_CMRCC_callName=EMPTY
_CMRCC_callCount=  0.000000000000000    
_GECCO_CIROOT=  1.000000000000000    
_SYM_CATION=  0.000000000000000    
_MON_A=FALSE
_MON_B=FALSE
R1=  1.078100000000000    
R2=  1.078100000000000    
R3=  1.078100000000000    
A2=  119.8261000000000    
A3=  119.8925000000000    
D3=  187.8872000000000    
R21=  1.078100000000000    
R22=  1.078100000000000    
R23=  1.078100000000000    
A22=  119.8074000000000    
A23=  119.9111000000000    
D23=  172.1316000000000    
ANG2=  92.18550000000000    
DH3=  93.52060000000000    
DH2=  59.40190000000000    
DH1=  93.66860000000000    
ANG1=  92.22669999999999    
BB=  3.200000000000000    
GX1=-0.3250730253769041E-04
GY1=-0.3680260205610741E-03
GZ1= -3.023542059582919    
GX2= 0.2825050389537636    
GY2=  2.015697902316918    
GZ2= -3.102901760974552    
GX3=  1.605595134417700    
GY3= -1.252252557537938    
GZ3= -3.096974004567322    
GX4= -1.885978421416253    
GY4=-0.7656693831419792    
GZ4= -3.113925113739457    
GX5=-0.2954749152810805E-03
GY5= 0.2777318919176958E-03
GZ5=  3.023581499022312    
GX6= -1.591883433191706    
GY6=  1.269722741111305    
GZ6=  3.101069525776366    
GX7=  1.894305721943063    
GY7= 0.7461016684861475    
GZ7=  3.093440035499847    
GX8=-0.3006356786828158    
GY8= -2.012524391732562    
GZ8=  3.118821342504052    
CBSEN= -79.39542599335681    
[Atoms] Angs
C     1    6        -0.0000172021       -0.0001947510       -1.5999895541
H     2    1         0.1494952286        1.0666613940       -1.6419848996
H     3    1         0.8496443551       -0.6626635157       -1.6388480660
H     4    1        -0.9980168009       -0.4051747886       -1.6478182066
C     5    6        -0.0001563586        0.0001469694        1.6000104246
H     6    1        -0.8423884353        0.6719083388        1.6410153225
H     7    1         1.0024234185        0.3948200000        1.6369779701
H     8    1        -0.1590895499       -1.0649820445        1.6504091793
[GTO]
   1 0
 s    9  1.00
  0.6665000000D+04  0.6920001793D-03
  0.1000000000D+04  0.5329001381D-02
  0.2280000000D+03  0.2707700701D-01
  0.6471000000D+02  0.1017180264D+00
  0.2106000000D+02  0.2747400712D+00
  0.7495000000D+01  0.4485641162D+00
  0.2797000000D+01  0.2850740738D+00
  0.5215000000D+00  0.1520400394D-01
  0.1596000000D+00 -0.3191000827D-02
 s    9  1.00
  0.6665000000D+04 -0.1460000642D-03
  0.1000000000D+04 -0.1154000508D-02
  0.2280000000D+03 -0.5725002519D-02
  0.6471000000D+02 -0.2331201026D-01
  0.2106000000D+02 -0.6395502813D-01
  0.7495000000D+01 -0.1499810660D+00
  0.2797000000D+01 -0.1272620560D+00
  0.5215000000D+00  0.5445292395D+00
  0.1596000000D+00  0.5804962554D+00
 s    9  1.00
  0.6665000000D+04  0.0000000000D+00
  0.1000000000D+04  0.0000000000D+00
  0.2280000000D+03  0.0000000000D+00
  0.6471000000D+02  0.0000000000D+00
  0.2106000000D+02  0.0000000000D+00
  0.7495000000D+01  0.0000000000D+00
  0.2797000000D+01  0.0000000000D+00
  0.5215000000D+00  0.0000000000D+00
  0.1596000000D+00  0.1000000000D+01
 p    4  1.00
  0.9439000000D+01  0.3810902127D-01
  0.2002000000D+01  0.2094801169D+00
  0.5456000000D+00  0.5085572839D+00
  0.1517000000D+00  0.4688422617D+00
 p    4  1.00
  0.9439000000D+01  0.0000000000D+00
  0.2002000000D+01  0.0000000000D+00
  0.5456000000D+00  0.0000000000D+00
  0.1517000000D+00  0.1000000000D+01
 d    1  1.00
  0.5500000000D+00  0.1000000000D+01
  
   2 0
 s    4  1.00
  0.1301000000D+02  0.1968498999D-01
  0.1962000000D+01  0.1379769298D+00
  0.4446000000D+00  0.4781477569D+00
  0.1220000000D+00  0.5012397451D+00
 s    4  1.00
  0.1301000000D+02  0.0000000000D+00
  0.1962000000D+01  0.0000000000D+00
  0.4446000000D+00  0.0000000000D+00
  0.1220000000D+00  0.1000000000D+01
 p    1  1.00
  0.7270000000D+00  0.1000000000D+01
  
   3 0
 s    4  1.00
  0.1301000000D+02  0.1968498999D-01
  0.1962000000D+01  0.1379769298D+00
  0.4446000000D+00  0.4781477569D+00
  0.1220000000D+00  0.5012397451D+00
 s    4  1.00
  0.1301000000D+02  0.0000000000D+00
  0.1962000000D+01  0.0000000000D+00
  0.4446000000D+00  0.0000000000D+00
  0.1220000000D+00  0.1000000000D+01
 p    1  1.00
  0.7270000000D+00  0.1000000000D+01
  
   4 0
 s    4  1.00
  0.1301000000D+02  0.1968498999D-01
  0.1962000000D+01  0.1379769298D+00
  0.4446000000D+00  0.4781477569D+00
  0.1220000000D+00  0.5012397451D+00
 s    4  1.00
  0.1301000000D+02  0.0000000000D+00
  0.1962000000D+01  0.0000000000D+00
  0.4446000000D+00  0.0000000000D+00
  0.1220000000D+00  0.1000000000D+01
 p    1  1.00
  0.7270000000D+00  0.1000000000D+01
  
   5 0
 s    9  1.00
  0.6665000000D+04  0.6920001793D-03
  0.1000000000D+04  0.5329001381D-02
  0.2280000000D+03  0.2707700701D-01
  0.6471000000D+02  0.1017180264D+00
  0.2106000000D+02  0.2747400712D+00
  0.7495000000D+01  0.4485641162D+00
  0.2797000000D+01  0.2850740738D+00
  0.5215000000D+00  0.1520400394D-01
  0.1596000000D+00 -0.3191000827D-02
 s    9  1.00
  0.6665000000D+04 -0.1460000642D-03
  0.1000000000D+04 -0.1154000508D-02
  0.2280000000D+03 -0.5725002519D-02
  0.6471000000D+02 -0.2331201026D-01
  0.2106000000D+02 -0.6395502813D-01
  0.7495000000D+01 -0.1499810660D+00
  0.2797000000D+01 -0.1272620560D+00
  0.5215000000D+00  0.5445292395D+00
  0.1596000000D+00  0.5804962554D+00
 s    9  1.00
  0.6665000000D+04  0.0000000000D+00
  0.1000000000D+04  0.0000000000D+00
  0.2280000000D+03  0.0000000000D+00
  0.6471000000D+02  0.0000000000D+00
  0.2106000000D+02  0.0000000000D+00
  0.7495000000D+01  0.0000000000D+00
  0.2797000000D+01  0.0000000000D+00
  0.5215000000D+00  0.0000000000D+00
  0.1596000000D+00  0.1000000000D+01
 p    4  1.00
  0.9439000000D+01  0.3810902127D-01
  0.2002000000D+01  0.2094801169D+00
  0.5456000000D+00  0.5085572839D+00
  0.1517000000D+00  0.4688422617D+00
 p    4  1.00
  0.9439000000D+01  0.0000000000D+00
  0.2002000000D+01  0.0000000000D+00
  0.5456000000D+00  0.0000000000D+00
  0.1517000000D+00  0.1000000000D+01
 d    1  1.00
  0.5500000000D+00  0.1000000000D+01
  
   6 0
 s    4  1.00
  0.1301000000D+02  0.1968498999D-01
  0.1962000000D+01  0.1379769298D+00
  0.4446000000D+00  0.4781477569D+00
  0.1220000000D+00  0.5012397451D+00
 s    4  1.00
  0.1301000000D+02  0.0000000000D+00
  0.1962000000D+01  0.0000000000D+00
  0.4446000000D+00  0.0000000000D+00
  0.1220000000D+00  0.1000000000D+01
 p    1  1.00
  0.7270000000D+00  0.1000000000D+01
  
   7 0
 s    4  1.00
  0.1301000000D+02  0.1968498999D-01
  0.1962000000D+01  0.1379769298D+00
  0.4446000000D+00  0.4781477569D+00
  0.1220000000D+00  0.5012397451D+00
 s    4  1.00
  0.1301000000D+02  0.0000000000D+00
  0.1962000000D+01  0.0000000000D+00
  0.4446000000D+00  0.0000000000D+00
  0.1220000000D+00  0.1000000000D+01
 p    1  1.00
  0.7270000000D+00  0.1000000000D+01
  
   8 0
 s    4  1.00
  0.1301000000D+02  0.1968498999D-01
  0.1962000000D+01  0.1379769298D+00
  0.4446000000D+00  0.4781477569D+00
  0.1220000000D+00  0.5012397451D+00
 s    4  1.00
  0.1301000000D+02  0.0000000000D+00
  0.1962000000D+01  0.0000000000D+00
  0.4446000000D+00  0.0000000000D+00
  0.1220000000D+00  0.1000000000D+01
 p    1  1.00
  0.7270000000D+00  0.1000000000D+01


[MO]
 Sym=      1.1
 Ene=     -11.2290
 Spin= Alpha
 Occup=    2.000000
1 0.82245111870156
2 0.006335858257327
3 -0.006207609356466
4 0.000000601355748
5 0.000000369929080
6 -0.000182499354192
7 -0.000000235395457
8 -0.000000392246368
9 0.000157023806535
10 0.000299431931334
11 0.000300289446577
12 -0.000599721377911
13 0.000001139902127
14 0.000005140862277
15 0.000000108692060
16 -0.000594055564912
17 0.001274022032292
18 0.000059288501743
19 0.000425541172117
20 -0.000051613043538
21 -0.000592908903823
22 0.001273667144466
23 0.000338493839910
24 -0.000263680130811
25 -0.000050298507624
26 -0.000594482229465
27 0.001275561987319
28 -0.000397858708958
29 -0.000160836614163
30 -0.000053804143622
31 0.57109669470012
32 0.004207634169011
33 -0.003941721494678
34 0.000000668447006
35 0.000000612356224
36 0.000200395506101
37 -0.000000722423880
38 0.000001357848129
39 -0.000289687581039
40 0.000207948499251
41 0.000208924880081
42 -0.000416873379332
43 -0.000000975145600
44 -0.000002427047036
45 -0.000005243710988
46 -0.000487249039336
47 0.000894251561969
48 -0.000238421216648
49 0.000189578764012
50 0.000064130286400
51 -0.000485013419185
52 0.000892153216316
53 0.000283310867683
54 0.000111477364702
55 0.000063035774470
56 -0.000484458896815
57 0.000894180352075
58 -0.000045232523648
59 -0.000300694195624
60 0.000066668831353
 Sym=      2.1
 Ene=     -11.2290
 Spin= Alpha
 Occup=    2.000000
1 0.57129259284722
2 0.004950341284401
3 -0.005367384551386
4 -0.000000322258710
5 -0.000000067117465
6 0.000084914687438
7 -0.000001539776869
8 0.000001672998146
9 -0.000408622432445
10 0.000207370136379
11 0.000207934419357
12 -0.000415304555737
13 0.000001345782823
14 0.000002954517842
15 0.000000272418909
16 -0.000204466570319
17 0.000861736047748
18 0.000038742324882
19 0.000277642307689
20 0.000046133612499
21 -0.000199518082026
22 0.000859797507755
23 0.000220558293897
24 -0.000171919032821
25 0.000047000649168
26 -0.000204884989032
27 0.000860608931072
28 -0.000260109517782
29 -0.000105391896948
30 0.000044519056571
31 -0.82258715118091
32 -0.006851624930218
33 0.007197536003972
34 -0.000000143363664
35 0.000000330875935
36 0.000016311398020
37 0.000001444493250
38 0.000002101327980
39 -0.000328356303968
40 -0.000297493939751
41 -0.000301123408153
42 0.000598617347904
43 0.000000926818230
44 0.000002994304309
45 0.000006190598841
46 0.000396994721467
47 -0.001251190001094
48 0.000322779697164
49 -0.000256929986185
50 0.000025584344961
51 0.000393627960662
52 -0.001250653371946
53 -0.000383113128236
54 -0.000150912175266
55 0.000027267072378
56 0.000402166449287
57 -0.001253042133254
58 0.000061513328569
59 0.000408617993165
60 0.000021955096711
 Sym=      3.1
 Ene=      -0.9013
 Spin= Alpha
 Occup=    2.000000
1 -0.019790536303220
2 0.53129252312968
3 -0.10445410322907
4 0.000132938090261
5 -0.000028758391128
6 -0.011610181852443
7 -0.000045358755888
8 0.000037193431699
9 0.003176560258339
10 0.001059891847689
11 0.001062573667197
12 -0.002122465514886
13 -0.000003278864949
14 0.000018209879237
15 0.000002405583767
16 0.24608717794896
17 -0.10139889089752
18 -0.002776239369980
19 -0.019846154923171
20 0.000423047204721
21 0.24612113739654
22 -0.10138690696700
23 -0.015802468222523
24 0.012322198252565
25 0.000364395667584
26 0.24604555260613
27 -0.10138173793329
28 0.018567139498184
29 0.007529748289979
30 0.000530509041537
31 -0.019786014675797
32 0.53117344919554
33 -0.10443033276222
34 0.000142839940896
35 0.000147935064376
36 0.011576408406454
37 -0.000058625620255
38 -0.000051953910493
39 -0.003168267331583
40 0.001065301079054
41 0.001056548136632
42 -0.002121849215687
43 0.000001322444746
44 -0.000012529642337
45 -0.000023753815230
46 0.24601093199715
47 -0.10136370404415
48 0.015667770627751
49 -0.012486360981075
50 -0.000404845421410
51 0.24609343935730
52 -0.10137124835968
53 -0.018643280302372
54 -0.007336616875393
55 -0.000330274717768
56 0.24597997727044
57 -0.10136289223545
58 0.002961490333852
59 0.019810392631875
60 -0.000579057358469
 Sym=      4.1
 Ene=      -0.8905
 Spin= Alpha
 Occup=    2.000000
1 -0.019484066800183
2 0.53789386052023
3 -0.10532787397603
4 0.000086575077944
5 -0.000041459402554
6 -0.019857710577227
7 -0.000028092000695
8 0.000029570586784
9 0.001316593158561
10 0.001556029287135
11 0.001552376896196
12 -0.003108406183330
13 0.000000572129342
14 0.000022045740852
15 0.000002406215320
16 0.25039581488995
17 -0.10427957826666
18 -0.002789937941959
19 -0.019937997756771
20 0.000259176054376
21 0.25039251416225
22 -0.10426619954855
23 -0.015873807304438
24 0.012377754953138
25 0.000196941763893
26 0.25044196370031
27 -0.10428650438144
28 0.018656228921306
29 0.007566704220872
30 0.000368910240346
31 0.019488743935491
32 -0.53801480561034
33 0.10534934199630
34 -0.000111102628678
35 -0.000090015462493
36 -0.019824023680796
37 0.000051071854629
38 0.000021760460694
39 0.001312343174892
40 -0.001552976839650
41 -0.001555801831025
42 0.003108778670674
43 -0.000000287854028
44 0.000014801661337
45 0.000029314957001
46 -0.25042229901814
47 0.10429434070208
48 -0.015745828288022
49 0.012550275460139
50 0.000238694320115
51 -0.25044745659182
52 0.10428668302976
53 0.018734334769035
54 0.007374034699217
55 0.000162592016654
56 -0.25052168178954
57 0.10431784310840
58 -0.002977483729982
59 -0.019916572785074
60 0.000420443146823
 Sym=      5.1
 Ene=      -0.5701
 Spin= Alpha
 Occup=    2.000000
1 0.000000529549246
2 -0.000108211665336
3 0.000029236993959
4 0.001513231642520
5 0.44848054156757
6 0.000149884409335
7 -0.000335619202977
8 -0.085764257956228
9 -0.000012858112886
10 -0.013213872562847
11 0.013211310250784
12 0.000002562312063
13 0.006696496137968
14 -0.000087455994222
15 -0.002001972094115
16 0.44204740517752
17 -0.12407913833967
18 -0.003364024185870
19 -0.015218904193321
20 0.000891203854672
21 -0.27325728660941
22 0.076716172599431
23 0.011951147504876
24 -0.000303286541240
25 -0.000505019244607
26 -0.16907695118495
27 0.047507470819666
28 -0.008640636138305
29 0.005473083027429
30 -0.000381687114728
31 0.000004880398934
32 -0.000038502729956
33 -0.000032062357448
34 -0.009785642412077
35 0.45256707907281
36 -0.002916009809609
37 0.001903721178865
38 -0.086535480136646
39 0.000584877945054
40 0.012997151572931
41 -0.012971299530554
42 -0.000025852042378
43 -0.007567476701297
44 -0.000048562207607
45 0.002178757865469
46 0.28810517129789
47 -0.080937007172490
48 0.012266692058424
49 -0.000866303060630
50 -0.000614255955451
51 0.15578514532517
52 -0.043728105303436
53 -0.008212279566423
54 0.005917355639456
55 -0.000334642407180
56 -0.44386225258681
57 0.12465251079020
58 -0.003817325697012
59 -0.015203048801390
60 0.001021360380196
 Sym=      6.1
 Ene=      -0.5700
 Spin= Alpha
 Occup=    2.000000
1 0.000005186481011
2 -0.000135229744541
3 -0.000021935893521
4 0.45265064045641
5 0.009428274683892
6 0.002191956537101
7 -0.086482838064170
8 -0.001820775356170
9 -0.000431492774484
10 -0.006140466358534
11 0.006159003194064
12 -0.000018536835530
13 -0.015248229838205
14 -0.002095749531018
15 -0.000123179567559
16 0.071528425977389
17 -0.020129855248837
18 0.008524862899389
19 -0.003730329626130
20 0.000181741401710
21 0.34931940790425
22 -0.098042949921712
23 -0.006159624750860
24 0.012066917717730
25 0.000687750326847
26 -0.42093313591859
27 0.11821749164886
28 -0.012492084987041
29 -0.008564526551086
30 -0.000919858107215
31 0.000005852551684
32 -0.000244654179057
33 -0.000019806141630
34 0.44841014293617
35 -0.001160626657078
36 -0.001444815545143
37 -0.085683468667715
38 0.000227843302460
39 0.000275014395566
40 0.006216491268427
41 -0.006205047440408
42 -0.000011443828019
43 0.015061960093105
44 0.001908356555397
45 -0.000012181164911
46 -0.34977344416879
47 0.098219204973920
48 -0.006131956479116
49 0.012039999996494
50 0.000650653125159
51 0.41465984647479
52 -0.11634938438391
53 -0.012348239602502
54 -0.008422863484069
55 -0.000756299510781
56 -0.065030935923886
57 0.018204747063147
58 0.008459120607525
59 -0.003575942352507
60 0.000135103433104
 Sym=      7.1
 Ene=      -0.5639
 Spin= Alpha
 Occup=    2.000000
1 -0.000004320164659
2 0.000209860687425
3 -0.000009766915589
4 0.029510091609948
5 0.45564886460626
6 0.000161291877261
7 -0.005672589727113
8 -0.087086360438367
9 -0.000037409988666
10 -0.013839150731476
11 0.013845044124450
12 -0.000005893392974
13 0.005876558173711
14 -0.000258333944562
15 -0.002655883940425
16 0.45385858469071
17 -0.12835366769727
18 -0.002875972637033
19 -0.015663510306872
20 0.000441600789271
21 -0.25591326451903
22 0.072328748627106
23 0.011665167042859
24 0.000376365369003
25 -0.000206665351315
26 -0.19772219003562
27 0.055944091347978
28 -0.009477345631221
29 0.004937307151601
30 -0.000242003104325
31 0.000001891109482
32 -0.000004118118183
33 -0.000016766838207
34 -0.040300858249099
35 -0.45254463444892
36 0.003075767552743
37 0.007678969080506
38 0.086537939296337
39 -0.000612162511305
40 -0.013747488821484
41 0.013718667668476
42 0.000028821153008
43 0.005908296459042
44 -0.000217928348683
45 -0.002793336713014
46 -0.24954317519345
47 0.070634197391308
48 -0.011516761244002
49 -0.000409399547631
50 0.000281996173424
51 -0.20249899412508
52 0.057228812628047
53 0.009550054849320
54 -0.004882846743827
55 0.000208093183292
56 0.45197689781995
57 -0.12779037588751
58 0.002863604453989
59 0.015583462175572
60 -0.000570231220130
 Sym=      8.1
 Ene=      -0.5637
 Spin= Alpha
 Occup=    2.000000
1 0.000001985204784
2 -0.000020781636806
3 -0.000001037832239
4 -0.45248028710195
5 0.040685438372064
6 -0.002137475105150
7 0.086455932328064
8 -0.007714248383200
9 0.000424395953342
10 0.004678793618068
11 -0.004700358194281
12 0.000021564576212
13 0.016057151521967
14 0.002704013950073
15 -0.000155634527725
16 -0.022258511793548
17 0.006317536760048
18 -0.008786006053916
19 0.002021590283501
20 -0.000057764725392
21 -0.38053920051386
22 0.10760433986416
23 0.007522508911912
24 -0.012043698688586
25 -0.000347353634218
26 0.40266192099857
27 -0.11383828933875
28 0.011524422796610
29 0.009118746569350
30 0.000461613864070
31 -0.000001005203534
32 0.000000502090589
33 -0.000021513925785
34 0.45577345801606
35 -0.029165706927031
36 -0.001201497332213
37 -0.087034795971927
38 0.005623738511148
39 0.000238999285279
40 0.005532593438477
41 -0.005517155197474
42 -0.000015438241003
43 0.015819569230995
44 0.002559682355653
45 -0.000188442614005
46 -0.37334077057784
47 0.10556087987220
48 -0.007003769228780
49 0.012203799262414
50 0.000312584131399
51 0.41204110196182
52 -0.11650538099484
53 -0.012032732382515
54 -0.008864224240615
55 -0.000315856715905
56 -0.038480666211045
57 0.010839437492274
58 0.008712367015176
59 -0.002658158330566
60 0.000036315991364
 Sym=      9.1
 Ene=      -0.1672
 Spin= Alpha
 Occup=    1.381722
1 0.001630231858118
2 0.012999723905325
3 -0.005767750835661
4 -0.003004317612760
5 -0.000052514191701
6 0.59174435981004
7 -0.000403946440019
8 0.000029542765259
9 0.075935766977939
10 -0.002339726525273
11 -0.002340396249125
12 0.004680122774398
13 0.000009410762667
14 -0.000030702098231
15 -0.000006594224952
16 -0.024108865178298
17 0.013982797055928
18 0.000013866037635
19 0.000577806367162
20 0.014583820159794
21 -0.024210311125645
22 0.014134714148027
23 0.000391690776682
24 -0.000361290285567
25 0.014595150826162
26 -0.024044056912979
27 0.014082633607005
28 -0.000603878207846
29 -0.000221027632107
30 0.014571928297516
31 0.001630067616197
32 0.012917348285620
33 -0.005800109797739
34 -0.001945181771537
35 -0.004132955847894
36 -0.59173449475931
37 -0.000253373601090
38 -0.000571276149697
39 -0.075939091388612
40 -0.002351570902895
41 -0.002324768801945
42 0.004676339704840
43 0.000005421564580
44 0.000017097336020
45 0.000042361145763
46 -0.024163343013857
47 0.014130169169313
48 -0.000498039535885
49 0.000270236415757
50 -0.014593684620355
51 -0.024185669489163
52 0.014071234361063
53 0.000499735589449
54 0.000122916697695
55 -0.014596362360972
56 -0.023936112656752
57 0.013996658368145
58 -0.000130365847127
59 -0.000664997495941
60 -0.014561711256102
 Sym=     10.1
 Ene=      -0.0242
 Spin= Alpha
 Occup=    0.618278
1 -0.001888021177595
2 0.055730546216953
3 0.034843188003982
4 -0.003145613791268
5 -0.000152210186441
6 0.68363049303361
7 -0.000261520263354
8 -0.000023432480035
9 0.062898332152520
10 -0.000404432724992
11 -0.000402730391931
12 0.000807163116923
13 -0.000012516290577
14 -0.000001411948592
15 0.000000021655320
16 0.000468944271306
17 -0.011560056047646
18 -0.000030266076287
19 0.000266802489030