 Entering Gaussian System, Link 0=g09
 Input=geom.com
 Output=geom.log
 Initial command:
 /programs/64bit/g09/g09-gfortran/bin/l1.exe /data/scratch/Gau-23969.inp -scrdir=/data/scratch/
 Entering Link 1 = /programs/64bit/g09/g09-gfortran/bin/l1.exe PID=     23970.
  
 Copyright (c) 1988,1990,1992,1993,1995,1998,2003,2009, Gaussian, Inc.
                  All Rights Reserved.
  
 This is part of the Gaussian(R) 09 program.  It is based on
 the Gaussian(R) 03 system (copyright 2003, Gaussian, Inc.),
 the Gaussian(R) 98 system (copyright 1998, Gaussian, Inc.),
 the Gaussian(R) 94 system (copyright 1995, Gaussian, Inc.),
 the Gaussian 92(TM) system (copyright 1992, Gaussian, Inc.),
 the Gaussian 90(TM) system (copyright 1990, Gaussian, Inc.),
 the Gaussian 88(TM) system (copyright 1988, Gaussian, Inc.),
 the Gaussian 86(TM) system (copyright 1986, Carnegie Mellon
 University), and the Gaussian 82(TM) system (copyright 1983,
 Carnegie Mellon University). Gaussian is a federally registered
 trademark of Gaussian, Inc.
  
 This software contains proprietary and confidential information,
 including trade secrets, belonging to Gaussian, Inc.
  
 This software is provided under written license and may be
 used, copied, transmitted, or stored only in accord with that
 written license.
  
 The following legend is applicable only to US Government
 contracts under FAR:
  
                    RESTRICTED RIGHTS LEGEND
  
 Use, reproduction and disclosure by the US Government is
 subject to restrictions as set forth in subparagraphs (a)
 and (c) of the Commercial Computer Software - Restricted
 Rights clause in FAR 52.227-19.
  
 Gaussian, Inc.
 340 Quinnipiac St., Bldg. 40, Wallingford CT 06492
  
  
 ---------------------------------------------------------------
 Warning -- This program may not be used in any manner that
 competes with the business of Gaussian, Inc. or will provide
 assistance to any competitor of Gaussian, Inc.  The licensee
 of this program is prohibited from giving any competitor of
 Gaussian, Inc. access to this program.  By using this program,
 the user acknowledges that Gaussian, Inc. is engaged in the
 business of creating and licensing software in the field of
 computational chemistry and represents and warrants to the
 licensee that it is not a competitor of Gaussian, Inc. and that
 it will not use this program in any manner prohibited above.
 ---------------------------------------------------------------
  

 Cite this work as:
 Gaussian 09, Revision A.02,
 M. J. Frisch, G. W. Trucks, H. B. Schlegel, G. E. Scuseria, 
 M. A. Robb, J. R. Cheeseman, G. Scalmani, V. Barone, B. Mennucci, 
 G. A. Petersson, H. Nakatsuji, M. Caricato, X. Li, H. P. Hratchian, 
 A. F. Izmaylov, J. Bloino, G. Zheng, J. L. Sonnenberg, M. Hada, 
 M. Ehara, K. Toyota, R. Fukuda, J. Hasegawa, M. Ishida, T. Nakajima, 
 Y. Honda, O. Kitao, H. Nakai, T. Vreven, J. A. Montgomery, Jr., 
 J. E. Peralta, F. Ogliaro, M. Bearpark, J. J. Heyd, E. Brothers, 
 K. N. Kudin, V. N. Staroverov, R. Kobayashi, J. Normand, 
 K. Raghavachari, A. Rendell, J. C. Burant, S. S. Iyengar, J. Tomasi, 
 M. Cossi, N. Rega, J. M. Millam, M. Klene, J. E. Knox, J. B. Cross, 
 V. Bakken, C. Adamo, J. Jaramillo, R. Gomperts, R. E. Stratmann, 
 O. Yazyev, A. J. Austin, R. Cammi, C. Pomelli, J. W. Ochterski, 
 R. L. Martin, K. Morokuma, V. G. Zakrzewski, G. A. Voth, 
 P. Salvador, J. J. Dannenberg, S. Dapprich, A. D. Daniels, 
 O. Farkas, J. B. Foresman, J. V. Ortiz, J. Cioslowski, 
 and D. J. Fox, Gaussian, Inc., Wallingford CT, 2009.
 
 ******************************************
 Gaussian 09:  EM64L-G09RevA.02 11-Jun-2009
                 6-Apr-2017 
 ******************************************
 %mem=200MW
 %chk=tmp
 %NProcShared= 12
 Will use up to   12 processors via shared memory.
 ------------------------------------------------------------
 # m062x/6-311+g(d,p) opt=internal # int=ultrafine nosym freq
 ------------------------------------------------------------
 1/10=7,14=-1,18=40,26=3,38=1/1,3;
 2/12=2,15=1,17=6,18=5,29=3,40=1/2;
 3/5=4,6=6,7=111,11=2,16=1,25=1,30=1,71=1,74=-55,75=-5/1,2,3;
 4//1;
 5/5=2,38=5/2;
 6/7=2,8=2,9=2,10=2,28=1/1;
 7/29=1,30=1/1,2,3,16;
 1/10=7,14=-1,18=40/3(2);
 2/15=1,29=3/2;
 99//99;
 2/15=1,29=3/2;
 3/5=4,6=6,7=111,11=2,16=1,25=1,30=1,71=1,74=-55,75=-5/1,2,3;
 4/5=5,16=3/1;
 5/5=2,38=5/2;
 7/30=1/1,2,3,16;
 1/14=-1,18=40/3(-5);
 2/15=1,29=3/2;
 6/7=2,8=2,9=2,10=2,19=2,28=1/1;
 99/9=1/99;
 ------
 geom 0
 ------
 Symbolic Z-matrix:
 Charge =  0 Multiplicity = 1
 c1
 c2                   c1   rcc1
 h3                   c1   rch1     c2   ahcc1
 h4                   c1   rch2     c2   ahcc2    h3   b1       0
 h5                   c2   rch3     c1   ahcc3    h3   b2       0
 h6                   c2   rch4     c1   ahcc4    h5   b3       0
       Variables:
  RCC1                  1.3341                   
  RCH1                  1.0869                   
  RCH2                  1.0869                   
  RCH3                  1.0869                   
  RCH4                  1.0869                   
  AHCC1               121.7247                   
  AHCC2               121.7259                   
  AHCC3               121.7273                   
  AHCC4               121.7283                   
  B1                  179.9735                   
  B2                    0.0338                   
  B3                  179.9715                   
 

 GradGradGradGradGradGradGradGradGradGradGradGradGradGradGradGradGradGrad
 Berny optimization.
 Initialization pass.
                       ----------------------------
                       !    Initial Parameters    !
                       ! (Angstroms and Degrees)  !
 ----------------------                            ----------------------
 !      Name          Value   Derivative information (Atomic Units)     !
 ------------------------------------------------------------------------
 !      RCC1         1.3341   estimate D2E/DX2                          !
 !      RCH1         1.0869   estimate D2E/DX2                          !
 !      RCH2         1.0869   estimate D2E/DX2                          !
 !      RCH3         1.0869   estimate D2E/DX2                          !
 !      RCH4         1.0869   estimate D2E/DX2                          !
 !      AHCC1      121.7247   estimate D2E/DX2                          !
 !      AHCC2      121.7259   estimate D2E/DX2                          !
 !      AHCC3      121.7273   estimate D2E/DX2                          !
 !      AHCC4      121.7283   estimate D2E/DX2                          !
 !       B1        179.9735   estimate D2E/DX2                          !
 !       B2          0.0338   estimate D2E/DX2                          !
 !       B3        179.9715   estimate D2E/DX2                          !
 ------------------------------------------------------------------------
 Trust Radius=3.00D-01 FncErr=1.00D-07 GrdErr=1.00D-06
 Number of steps in this run=  22 maximum allowed number of steps= 100.
 GradGradGradGradGradGradGradGradGradGradGradGradGradGradGradGradGradGrad

 ---------------------------------------------------------------------------------------------------
                            Z-MATRIX (ANGSTROMS AND DEGREES)
   CD    Cent   Atom    N1       Length/X        N2       Alpha/Y        N3        Beta/Z          J
 ---------------------------------------------------------------------------------------------------
      1      1  C 
      2      2  C        1   1.334100(     1)
      3      3  H        1   1.086900(     2)      2  121.725(     6)
      4      4  H        1   1.086900(     3)      2  121.726(     7)      3  179.974(    10)      0
      5      5  H        2   1.086900(     4)      1  121.727(     8)      3    0.034(    11)      0
      6      6  H        2   1.086900(     5)      1  121.728(     9)      5  179.971(    12)      0
 ---------------------------------------------------------------------------------------------------
                         Z-Matrix orientation:                         
 ---------------------------------------------------------------------
 Center     Atomic      Atomic             Coordinates (Angstroms)
 Number     Number       Type             X           Y           Z
 ---------------------------------------------------------------------
      1          6           0        0.000000    0.000000    0.000000
      2          6           0        0.000000    0.000000    1.334100
      3          1           0        0.924500    0.000000   -0.571534
      4          1           0       -0.924488   -0.000428   -0.571553
      5          1           0        0.924474    0.000545    1.905676
      6          1           0       -0.924464   -0.000086    1.905692
 ---------------------------------------------------------------------
                    Distance matrix (angstroms):
                    1          2          3          4          5
     1  C    0.000000
     2  C    1.334100   0.000000
     3  H    1.086900   2.118051   0.000000
     4  H    1.086900   2.118063   1.848989   0.000000
     5  H    2.118078   1.086900   2.477209   3.091169   0.000000
     6  H    2.118088   1.086900   3.091168   2.477245   1.848939
                    6
     6  H    0.000000
 Symmetry turned off by external request.
 Stoichiometry    C2H4
 Framework group  C1[X(C2H4)]
 Deg. of freedom    12
 Full point group                 C1      NOp   1
 Rotational constants (GHZ):    146.6814862     29.9686112     24.8844498
 Standard basis: 6-311+G(d,p) (5D, 7F)
 Integral buffers will be    131072 words long.
 Raffenetti 2 integral format.
 Two-electron integral symmetry is turned off.
    68 basis functions,   104 primitive gaussians,    70 cartesian basis functions
     8 alpha electrons        8 beta electrons
       nuclear repulsion energy        33.3025761685 Hartrees.
 NAtoms=    6 NActive=    6 NUniq=    6 SFac= 7.50D-01 NAtFMM=   80 NAOKFM=F Big=F
 One-electron integrals computed using PRISM.
 NBasis=    68 RedAO= T  NBF=    68
 NBsUse=    68 1.00D-06 NBFU=    68
 Harris functional with IExCor= 1009 diagonalized for initial guess.
 ExpMin= 4.38D-02 ExpMax= 4.56D+03 ExpMxC= 6.82D+02 IAcc=3 IRadAn=         5 AccDes= 0.00D+00
 HarFok:  IExCor= 1009 AccDes= 0.00D+00 IRadAn=         5 IDoV= 1
 ScaDFX=  1.000000  1.000000  1.000000  1.000000
 FoFCou: FMM=F IPFlag=           0 FMFlag=      100000 FMFlg1=           0
         NFxFlg=           0 DoJE=T BraDBF=F KetDBF=T FulRan=T
         Omega=  0.000000  0.000000  1.000000  0.000000  0.000000 ICntrl=     500 IOpCl=  0
         NMat0=    1 NMatS0=    1 NMatT0=    0 NMatD0=    1 NMtDS0=    0 NMtDT0=    0
         I1Cent=           4 NGrid=           0.
 Symmetry not used in FoFCou.
 Requested convergence on RMS density matrix=1.00D-08 within 128 cycles.
 Requested convergence on MAX density matrix=1.00D-06.
 Requested convergence on             energy=1.00D-06.
 No special actions if energy rises.
 Keep R1 ints in memory in canonical form, NReq=4152981.
 SCF Done:  E(RM062X) =  -78.5634453468     A.U. after    8 cycles
             Convg  =    0.9157D-08             -V/T =  2.0051

 **********************************************************************

            Population analysis using the SCF density.

 **********************************************************************

 Alpha  occ. eigenvalues --  -10.54063 -10.53953  -0.85934  -0.66325  -0.54159
 Alpha  occ. eigenvalues --   -0.48626  -0.41821  -0.33443
 Alpha virt. eigenvalues --    0.02624   0.03392   0.04056   0.05139   0.07730
 Alpha virt. eigenvalues --    0.08190   0.09727   0.13421   0.16042   0.17352
 Alpha virt. eigenvalues --    0.19876   0.23021   0.31306   0.35919   0.43888
 Alpha virt. eigenvalues --    0.44540   0.54959   0.56033   0.57926   0.64299
 Alpha virt. eigenvalues --    0.65557   0.74174   0.75367   0.75991   0.79736
 Alpha virt. eigenvalues --    0.91093   1.05172   1.15092   1.16947   1.41968
 Alpha virt. eigenvalues --    1.46886   1.47906   1.61969   1.63920   1.64375
 Alpha virt. eigenvalues --    1.65741   1.80232   1.82528   2.00037   2.06127
 Alpha virt. eigenvalues --    2.13205   2.17778   2.18233   2.25413   2.38921
 Alpha virt. eigenvalues --    2.47578   2.57005   2.58229   2.66812   2.71474
 Alpha virt. eigenvalues --    2.78979   2.82982   2.95083   3.17015   3.48082
 Alpha virt. eigenvalues --    3.68811   3.86936   4.14923  23.82709  24.32983
          Condensed to atoms (all electrons):
              1          2          3          4          5          6
     1  C    4.873664   0.672998   0.405252   0.405250  -0.029763  -0.029761
     2  C    0.672998   4.873669  -0.029764  -0.029762   0.405253   0.405251
     3  H    0.405252  -0.029764   0.507702  -0.029239  -0.008293   0.005520
     4  H    0.405250  -0.029762  -0.029239   0.507700   0.005520  -0.008292
     5  H   -0.029763   0.405253  -0.008293   0.005520   0.507707  -0.029244
     6  H   -0.029761   0.405251   0.005520  -0.008292  -0.029244   0.507705
 Mulliken atomic charges:
              1
     1  C   -0.297640
     2  C   -0.297645
     3  H    0.148822
     4  H    0.148823
     5  H    0.148820
     6  H    0.148821
 Sum of Mulliken atomic charges =   0.00000
 Mulliken charges with hydrogens summed into heavy atoms:
              1
     1  C    0.000004
     2  C   -0.000004
 Sum of Mulliken charges with hydrogens summed into heavy atoms =   0.00000
 Electronic spatial extent (au):  <R**2>=            108.7264
 Charge=              0.0000 electrons
 Dipole moment (field-independent basis, Debye):
    X=              0.0000    Y=              0.0000    Z=              0.0000  Tot=              0.0000
 Quadrupole moment (field-independent basis, Debye-Ang):
   XX=            -12.3343   YY=            -15.9425   ZZ=            -12.2252
   XY=              0.0010   XZ=              0.0000   YZ=              0.0010
 Traceless Quadrupole moment (field-independent basis, Debye-Ang):
   XX=              1.1663   YY=             -2.4418   ZZ=              1.2755
   XY=              0.0010   XZ=              0.0000   YZ=              0.0010
 Octapole moment (field-independent basis, Debye-Ang**2):
  XXX=             -0.0000  YYY=             -0.0001  ZZZ=            -24.4643  XYY=             -0.0000
  XXY=              0.0000  XXZ=             -8.2278  XZZ=             -0.0001  YZZ=              0.0013
  YYZ=            -10.6345  XYZ=              0.0010
 Hexadecapole moment (field-independent basis, Debye-Ang**3):
 XXXX=            -27.3179 YYYY=            -20.2736 ZZZZ=           -101.9488 XXXY=             -0.0004
 XXXZ=             -0.0000 YYYX=             -0.0017 YYYZ=             -0.0021 ZZZX=             -0.0002
 ZZZY=              0.0010 XXYY=             -8.6808 XXZZ=            -18.7309 YYZZ=            -23.1472
 XXYZ=              0.0005 YYXZ=             -0.0000 ZZXY=              0.0017
 N-N= 3.330257616852D+01 E-N=-2.482869167842D+02  KE= 7.816831634859D+01
 Calling FoFJK, ICntrl=      2127 FMM=F ISym2X=0 I1Cent= 0 IOpClX= 0 NMat=1 NMatS=1 NMatT=0.
 -------------------------------------------------------------------
 Center     Atomic                   Forces (Hartrees/Bohr)
 Number     Number              X              Y              Z
 -------------------------------------------------------------------
      1        6           0.000000628   -0.000036505    0.007349312
      2        6           0.000000144    0.000038490   -0.007339092
      3        1          -0.001346301    0.000013717    0.001525134
      4        1           0.001345877    0.000005962    0.001526210
      5        1          -0.001341865   -0.000015289   -0.001530372
      6        1           0.001341518   -0.000006375   -0.001531193
 -------------------------------------------------------------------
 Cartesian Forces:  Max     0.007349312 RMS     0.002629365
 -----------------------------------------------------------------------------------------------
                       Internal Coordinate Forces (Hartree/Bohr or radian)
  Cent   Atom   N1       Length/X         N2         Alpha/Y        N3         Beta/Z          J
 -----------------------------------------------------------------------------------------------
      1  C 
      2  C        1  -0.010401(     1)
      3  H        1  -0.001947(     2)      2  -0.001210(     6)
      4  H        1  -0.001947(     3)      2  -0.001213(     7)      3   0.000009(    10)     0
      5  H        2  -0.001946(     4)      1  -0.001224(     8)      3  -0.000014(    11)     0
      6  H        2  -0.001946(     5)      1  -0.001226(     9)      5   0.000011(    12)     0
 -----------------------------------------------------------------------------------------------
 Internal  Forces:  Max     0.010400656 RMS     0.003282150

 GradGradGradGradGradGradGradGradGradGradGradGradGradGradGradGradGradGrad
 Berny optimization.
 Search for a local minimum.
 Step number   1 out of a maximum of   22
 All quantities printed in internal units (Hartrees-Bohrs-Radians)
 Second derivative matrix not updated -- first step.
 The second derivative matrix:
                         RCC1      RCH1      RCH2      RCH3      RCH4
           RCC1         0.58548
           RCH1         0.00000   0.35173
           RCH2         0.00000   0.00000   0.35173
           RCH3         0.00000   0.00000  -0.00000   0.35173
           RCH4         0.00000   0.00000  -0.00000   0.00000   0.35173
           AHCC1        0.00000   0.00000  -0.00000   0.00000   0.00000
           AHCC2       -0.00000   0.00000  -0.00000   0.00000   0.00000
           AHCC3        0.00000   0.00000   0.00000  -0.00000  -0.00000
           AHCC4        0.00000   0.00000   0.00000  -0.00000  -0.00000
           B1          -0.00000  -0.00000   0.00000   0.00000   0.00000
           B2          -0.00000   0.00000  -0.00000   0.00000  -0.00000
           B3          -0.00000   0.00000  -0.00000   0.00000  -0.00000
                         AHCC1     AHCC2     AHCC3     AHCC4      B1
           AHCC1        0.32000
           AHCC2        0.16000   0.32000
           AHCC3        0.00000  -0.00000   0.32000
           AHCC4        0.00000  -0.00000   0.16000   0.32000
           B1          -0.00005  -0.00005  -0.00000  -0.00000   0.09177
           B2           0.00000  -0.00000  -0.00000  -0.00000   0.05921
           B3           0.00000   0.00000  -0.00006  -0.00006   0.02960
                          B2        B3
           B2           0.11842
           B3           0.05921   0.09176
     Eigenvalues ---    0.03615   0.06216   0.16000   0.16000   0.20364
     Eigenvalues ---    0.35173   0.35173   0.35173   0.35173   0.48000
     Eigenvalues ---    0.48000   0.58548
 RFO step:  Lambda=-2.40127753D-04 EMin= 3.61468446D-02
 Linear search not attempted -- first point.
 Variable       Old X    -DE/DX   Delta X   Delta X   Delta X     New X
                                 (Linear)    (Quad)   (Total)
   RCC1       2.52108  -0.01040   0.00000  -0.01776  -0.01776   2.50333
   RCH1       2.05394  -0.00195   0.00000  -0.00553  -0.00553   2.04841
   RCH2       2.05394  -0.00195   0.00000  -0.00553  -0.00553   2.04841
   RCH3       2.05394  -0.00195   0.00000  -0.00553  -0.00553   2.04841
   RCH4       2.05394  -0.00195   0.00000  -0.00553  -0.00553   2.04841
  AHCC1       2.12450  -0.00121   0.00000  -0.00252  -0.00252   2.12198
  AHCC2       2.12452  -0.00121   0.00000  -0.00253  -0.00253   2.12199
  AHCC3       2.12454  -0.00122   0.00000  -0.00255  -0.00255   2.12200
  AHCC4       2.12456  -0.00123   0.00000  -0.00256  -0.00256   2.12200
    B1        3.14113   0.00001   0.00000   0.00026   0.00026   3.14139
    B2        0.00059  -0.00001   0.00000  -0.00039  -0.00039   0.00020
    B3        3.14110   0.00001   0.00000   0.00029   0.00029   3.14138
         Item               Value     Threshold  Converged?
 Maximum Force            0.010401     0.000450     NO 
 RMS     Force            0.003282     0.000300     NO 
 Maximum Displacement     0.017757     0.001800     NO 
 RMS     Displacement     0.006216     0.001200     NO 
 Predicted change in Energy=-1.201196D-04
 GradGradGradGradGradGradGradGradGradGradGradGradGradGradGradGradGradGrad

 ---------------------------------------------------------------------------------------------------
                            Z-MATRIX (ANGSTROMS AND DEGREES)
   CD    Cent   Atom    N1       Length/X        N2       Alpha/Y        N3        Beta/Z          J
 ---------------------------------------------------------------------------------------------------
      1      1  C 
      2      2  C        1   1.324703(     1)
      3      3  H        1   1.083973(     2)      2  121.581(     6)
      4      4  H        1   1.083972(     3)      2  121.581(     7)      3  179.988(    10)      0
      5      5  H        2   1.083974(     4)      1  121.581(     8)      3    0.011(    11)      0
      6      6  H        2   1.083974(     5)      1  121.582(     9)      5  179.988(    12)      0
 ---------------------------------------------------------------------------------------------------
                         Z-Matrix orientation:                         
 ---------------------------------------------------------------------
 Center     Atomic      Atomic             Coordinates (Angstroms)
 Number     Number       Type             X           Y           Z
 ---------------------------------------------------------------------
      1          6           0        0.000000    0.000000    0.000000
      2          6           0        0.000000    0.000000    1.324703
      3          1           0        0.923441    0.000000   -0.567673
      4          1           0       -0.923437   -0.000190   -0.567679
      5          1           0        0.923434    0.000185    1.892392
      6          1           0       -0.923430    0.000008    1.892398
 ---------------------------------------------------------------------
                    Distance matrix (angstroms):
                    1          2          3          4          5
     1  C    0.000000
     2  C    1.324703   0.000000
     3  H    1.083973   2.105667   0.000000
     4  H    1.083972   2.105670   1.846878   0.000000
     5  H    2.105677   1.083974   2.460065   3.076180   0.000000
     6  H    2.105681   1.083974   3.076180   2.460077   1.846863
                    6
     6  H    0.000000
 Symmetry turned off by external request.
 Stoichiometry    C2H4
 Framework group  C1[X(C2H4)]
 Deg. of freedom    12
 Full point group                 C1      NOp   1
 Rotational constants (GHZ):    147.0140844     30.3926341     25.1858854
 Standard basis: 6-311+G(d,p) (5D, 7F)
 Integral buffers will be    131072 words long.
 Raffenetti 2 integral format.
 Two-electron integral symmetry is turned off.
    68 basis functions,   104 primitive gaussians,    70 cartesian basis functions
     8 alpha electrons        8 beta electrons
       nuclear repulsion energy        33.4760130040 Hartrees.
 NAtoms=    6 NActive=    6 NUniq=    6 SFac= 7.50D-01 NAtFMM=   80 NAOKFM=F Big=F
 One-electron integrals computed using PRISM.
 NBasis=    68 RedAO= T  NBF=    68
 NBsUse=    68 1.00D-06 NBFU=    68
 Initial guess read from the read-write file.
 B after Tr=     0.000000    0.000000    0.000000
         Rot=    1.000000    0.000000    0.000000    0.000000 Ang=   0.00 deg.
 Requested convergence on RMS density matrix=1.00D-08 within 128 cycles.
 Requested convergence on MAX density matrix=1.00D-06.
 Requested convergence on             energy=1.00D-06.
 No special actions if energy rises.
 Keep R1 ints in memory in canonical form, NReq=4152981.
 SCF Done:  E(RM062X) =  -78.5635514791     A.U. after    7 cycles
             Convg  =    0.4312D-08             -V/T =  2.0045
 Calling FoFJK, ICntrl=      2127 FMM=F ISym2X=0 I1Cent= 0 IOpClX= 0 NMat=1 NMatS=1 NMatT=0.
 -------------------------------------------------------------------
 Center     Atomic                   Forces (Hartrees/Bohr)
 Number     Number              X              Y              Z
 -------------------------------------------------------------------
      1        6           0.000000342   -0.000016152   -0.001218499
      2        6           0.000000226    0.000016309    0.001223212
      3        1           0.000074946    0.000004081   -0.000117088
      4        1          -0.000075269    0.000004529   -0.000116868
      5        1           0.000075583   -0.000004061    0.000114741
      6        1          -0.000075829   -0.000004704    0.000114502
 -------------------------------------------------------------------
 Cartesian Forces:  Max     0.001223212 RMS     0.000412174
 -----------------------------------------------------------------------------------------------
                       Internal Coordinate Forces (Hartree/Bohr or radian)
  Cent   Atom   N1       Length/X         N2         Alpha/Y        N3         Beta/Z          J
 -----------------------------------------------------------------------------------------------
      1  C 
      2  C        1   0.001452(     1)
      3  H        1   0.000125(     2)      2   0.000124(     6)
      4  H        1   0.000125(     3)      2   0.000123(     7)      3   0.000008(    10)     0
      5  H        2   0.000124(     4)      1   0.000119(     8)      3   0.000001(    11)     0
      6  H        2   0.000125(     5)      1   0.000118(     9)      5   0.000008(    12)     0
 -----------------------------------------------------------------------------------------------
 Internal  Forces:  Max     0.001452455 RMS     0.000431171

 GradGradGradGradGradGradGradGradGradGradGradGradGradGradGradGradGradGrad
 Berny optimization.
 Search for a local minimum.
 Step number   2 out of a maximum of   22
 All quantities printed in internal units (Hartrees-Bohrs-Radians)
 Update second derivatives using D2CorN and points    1    2
 DE= -1.06D-04 DEPred=-1.20D-04 R= 8.84D-01
 SS=  1.41D+00  RLast= 2.15D-02 DXNew= 5.0454D-01 6.4603D-02
 Trust test= 8.84D-01 RLast= 2.15D-02 DXMaxT set to 3.00D-01
 The second derivative matrix:
                         RCC1      RCH1      RCH2      RCH3      RCH4
           RCC1         0.64126
           RCH1         0.01111   0.35324
           RCH2         0.01111   0.00151   0.35324
           RCH3         0.01109   0.00150   0.00151   0.35323
           RCH4         0.01110   0.00151   0.00151   0.00150   0.35323
           AHCC1        0.00634   0.00109   0.00109   0.00108   0.00108
           AHCC2        0.00634   0.00108   0.00108   0.00108   0.00108
           AHCC3        0.00629   0.00106   0.00106   0.00106   0.00106
           AHCC4        0.00630   0.00106   0.00106   0.00106   0.00106
           B1          -0.00025   0.00001   0.00001   0.00001   0.00001
           B2           0.00064   0.00006   0.00006   0.00006   0.00006
           B3          -0.00030   0.00001   0.00001   0.00001   0.00001
                         AHCC1     AHCC2     AHCC3     AHCC4      B1
           AHCC1        0.32068
           AHCC2        0.16068   0.32068
           AHCC3        0.00067   0.00067   0.32066
           AHCC4        0.00067   0.00067   0.16066   0.32066
           B1          -0.00006  -0.00006  -0.00001  -0.00001   0.09176
           B2           0.00006   0.00006   0.00005   0.00005   0.05921
           B3          -0.00002  -0.00002  -0.00007  -0.00007   0.02960
                          B2        B3
           B2           0.11842
           B3           0.05921   0.09176
     Eigenvalues ---    0.03614   0.06216   0.16000   0.16000   0.20364
     Eigenvalues ---    0.35173   0.35173   0.35173   0.35594   0.48000
     Eigenvalues ---    0.48172   0.64402
 RFO step:  Lambda=-1.75201299D-07 EMin= 3.61375559D-02
 Quartic linear search produced a step of -0.10827.
 Variable       Old X    -DE/DX   Delta X   Delta X   Delta X     New X
                                 (Linear)    (Quad)   (Total)
   RCC1       2.50333   0.00145   0.00192   0.00025   0.00218   2.50550
   RCH1       2.04841   0.00013   0.00060  -0.00030   0.00030   2.04871
   RCH2       2.04841   0.00013   0.00060  -0.00030   0.00030   2.04871
   RCH3       2.04841   0.00012   0.00060  -0.00030   0.00029   2.04871
   RCH4       2.04841   0.00012   0.00060  -0.00030   0.00029   2.04871
  AHCC1       2.12198   0.00012   0.00027  -0.00005   0.00022   2.12221
  AHCC2       2.12199   0.00012   0.00027  -0.00005   0.00022   2.12221
  AHCC3       2.12200   0.00012   0.00028  -0.00006   0.00022   2.12221
  AHCC4       2.12200   0.00012   0.00028  -0.00006   0.00021   2.12222
    B1        3.14139   0.00001  -0.00003   0.00014   0.00012   3.14150
    B2        0.00020   0.00000   0.00004  -0.00016  -0.00012   0.00008
    B3        3.14138   0.00001  -0.00003   0.00015   0.00012   3.14151
         Item               Value     Threshold  Converged?
 Maximum Force            0.001452     0.000450     NO 
 RMS     Force            0.000431     0.000300     NO 
 Maximum Displacement     0.002177     0.001800     NO 
 RMS     Displacement     0.000666     0.001200     YES
 Predicted change in Energy=-1.746939D-06
 GradGradGradGradGradGradGradGradGradGradGradGradGradGradGradGradGradGrad

 ---------------------------------------------------------------------------------------------------
                            Z-MATRIX (ANGSTROMS AND DEGREES)
   CD    Cent   Atom    N1       Length/X        N2       Alpha/Y        N3        Beta/Z          J
 ---------------------------------------------------------------------------------------------------
      1      1  C 
      2      2  C        1   1.325855(     1)
      3      3  H        1   1.084129(     2)      2  121.593(     6)
      4      4  H        1   1.084129(     3)      2  121.594(     7)      3  179.995(    10)      0
      5      5  H        2   1.084130(     4)      1  121.594(     8)      3    0.005(    11)      0
      6      6  H        2   1.084130(     5)      1  121.594(     9)      5  179.995(    12)      0
 ---------------------------------------------------------------------------------------------------
                         Z-Matrix orientation:                         
 ---------------------------------------------------------------------
 Center     Atomic      Atomic             Coordinates (Angstroms)
 Number     Number       Type             X           Y           Z
 ---------------------------------------------------------------------
      1          6           0        0.000000    0.000000    0.000000
      2          6           0        0.000000    0.000000    1.325855
      3          1           0        0.923447    0.000000   -0.567963
      4          1           0       -0.923445   -0.000082   -0.567965
      5          1           0        0.923444    0.000078    1.893824
      6          1           0       -0.923442    0.000002    1.893827
 ---------------------------------------------------------------------
                    Distance matrix (angstroms):
                    1          2          3          4          5
     1  C    0.000000
     2  C    1.325855   0.000000
     3  H    1.084129   2.106965   0.000000
     4  H    1.084129   2.106966   1.846892   0.000000
     5  H    2.106969   1.084130   2.461787   3.077565   0.000000
     6  H    2.106971   1.084130   3.077565   2.461792   1.846886
                    6
     6  H    0.000000
 Symmetry turned off by external request.
 Stoichiometry    C2H4
 Framework group  C1[X(C2H4)]
 Deg. of freedom    12
 Full point group                 C1      NOp   1
 Rotational constants (GHZ):    147.0111936     30.3436505     25.1521536
 Standard basis: 6-311+G(d,p) (5D, 7F)
 Integral buffers will be    131072 words long.
 Raffenetti 2 integral format.
 Two-electron integral symmetry is turned off.
    68 basis functions,   104 primitive gaussians,    70 cartesian basis functions
     8 alpha electrons        8 beta electrons
       nuclear repulsion energy        33.4576667631 Hartrees.
 NAtoms=    6 NActive=    6 NUniq=    6 SFac= 7.50D-01 NAtFMM=   80 NAOKFM=F Big=F
 One-electron integrals computed using PRISM.
 NBasis=    68 RedAO= T  NBF=    68
 NBsUse=    68 1.00D-06 NBFU=    68
 Initial guess read from the read-write file.
 B after Tr=     0.000000    0.000000    0.000000
         Rot=    1.000000    0.000000    0.000000    0.000000 Ang=   0.00 deg.
 Requested convergence on RMS density matrix=1.00D-08 within 128 cycles.
 Requested convergence on MAX density matrix=1.00D-06.
 Requested convergence on             energy=1.00D-06.
 No special actions if energy rises.
 Keep R1 ints in memory in canonical form, NReq=4152981.
 SCF Done:  E(RM062X) =  -78.5635531700     A.U. after    6 cycles
             Convg  =    0.4466D-08             -V/T =  2.0045
 Calling FoFJK, ICntrl=      2127 FMM=F ISym2X=0 I1Cent= 0 IOpClX= 0 NMat=1 NMatS=1 NMatT=0.
 -------------------------------------------------------------------
 Center     Atomic                   Forces (Hartrees/Bohr)
 Number     Number              X              Y              Z
 -------------------------------------------------------------------
      1        6           0.000000123   -0.000006933    0.000004068
      2        6           0.000000101    0.000006823   -0.000002078
      3        1           0.000010844    0.000001756    0.000003488
      4        1          -0.000010963    0.000001985    0.000003577
      5        1           0.000011123   -0.000001654   -0.000004482
      6        1          -0.000011228   -0.000001977   -0.000004573
 -------------------------------------------------------------------
 Cartesian Forces:  Max     0.000011228 RMS     0.000006159
 -----------------------------------------------------------------------------------------------
                       Internal Coordinate Forces (Hartree/Bohr or radian)
  Cent   Atom   N1       Length/X         N2         Alpha/Y        N3         Beta/Z          J
 -----------------------------------------------------------------------------------------------
      1  C 
      2  C        1  -0.000011(     1)
      3  H        1   0.000007(     2)      2  -0.000018(     6)
      4  H        1   0.000007(     3)      2  -0.000018(     7)      3   0.000003(    10)     0
      5  H        2   0.000007(     4)      1  -0.000020(     8)      3   0.000001(    11)     0
      6  H        2   0.000007(     5)      1  -0.000020(     9)      5   0.000003(    12)     0
 -----------------------------------------------------------------------------------------------
 Internal  Forces:  Max     0.000020032 RMS     0.000012217

 GradGradGradGradGradGradGradGradGradGradGradGradGradGradGradGradGradGrad
 Berny optimization.
 Search for a local minimum.
 Step number   3 out of a maximum of   22
 All quantities printed in internal units (Hartrees-Bohrs-Radians)
 Update second derivatives using D2CorN and points    1    2    3
 DE= -1.69D-06 DEPred=-1.75D-06 R= 9.68D-01
 SS=  1.41D+00  RLast= 2.31D-03 DXNew= 5.0454D-01 6.9188D-03
 Trust test= 9.68D-01 RLast= 2.31D-03 DXMaxT set to 3.00D-01
 The second derivative matrix:
                         RCC1      RCH1      RCH2      RCH3      RCH4
           RCC1         0.66275
           RCH1         0.00924   0.35137
           RCH2         0.00924  -0.00036   0.35137
           RCH3         0.00927  -0.00036  -0.00036   0.35137
           RCH4         0.00926  -0.00036  -0.00036  -0.00036   0.35137
           AHCC1        0.01097   0.00091   0.00091   0.00091   0.00091
           AHCC2        0.01100   0.00091   0.00091   0.00091   0.00091
           AHCC3        0.01120   0.00091   0.00091   0.00091   0.00091
           AHCC4        0.01122   0.00091   0.00091   0.00091   0.00091
           B1          -0.00020  -0.00001  -0.00001  -0.00001  -0.00001
           B2          -0.00014  -0.00002  -0.00002  -0.00002  -0.00002
           B3          -0.00020  -0.00001  -0.00001  -0.00000  -0.00000
                         AHCC1     AHCC2     AHCC3     AHCC4      B1
           AHCC1        0.32132
           AHCC2        0.16131   0.32130
           AHCC3        0.00131   0.00131   0.32131
           AHCC4        0.00131   0.00130   0.16130   0.32129
           B1           0.00016   0.00016   0.00024   0.00024   0.09168
           B2          -0.00024  -0.00025  -0.00027  -0.00027   0.05925
           B3           0.00022   0.00023   0.00020   0.00020   0.02951
                          B2        B3
           B2           0.11842
           B3           0.05925   0.09167
     Eigenvalues ---    0.03599   0.06216   0.16000   0.16000   0.20361
     Eigenvalues ---    0.34915   0.35173   0.35173   0.35173   0.48000
     Eigenvalues ---    0.48251   0.66660
 RFO step:  Lambda= 0.00000000D+00 EMin= 3.59945895D-02
 Quartic linear search produced a step of -0.00911.
 Variable       Old X    -DE/DX   Delta X   Delta X   Delta X     New X
                                 (Linear)    (Quad)   (Total)
   RCC1       2.50550  -0.00001  -0.00002   0.00000  -0.00002   2.50549
   RCH1       2.04871   0.00001  -0.00000   0.00002   0.00002   2.04873
   RCH2       2.04871   0.00001  -0.00000   0.00002   0.00002   2.04873
   RCH3       2.04871   0.00001  -0.00000   0.00002   0.00002   2.04873
   RCH4       2.04871   0.00001  -0.00000   0.00002   0.00002   2.04873
  AHCC1       2.12221  -0.00002  -0.00000  -0.00003  -0.00004   2.12217
  AHCC2       2.12221  -0.00002  -0.00000  -0.00004  -0.00004   2.12217
  AHCC3       2.12221  -0.00002  -0.00000  -0.00004  -0.00004   2.12217
  AHCC4       2.12222  -0.00002  -0.00000  -0.00004  -0.00004   2.12217
    B1        3.14150   0.00000  -0.00000   0.00005   0.00005   3.14156
    B2        0.00008   0.00000   0.00000  -0.00005  -0.00005   0.00004
    B3        3.14151   0.00000  -0.00000   0.00005   0.00005   3.14156
         Item               Value     Threshold  Converged?
 Maximum Force            0.000020     0.000450     YES
 RMS     Force            0.000012     0.000300     YES
 Maximum Displacement     0.000052     0.001800     YES
 RMS     Displacement     0.000036     0.001200     YES
 Predicted change in Energy=-2.037406D-09
 Optimization completed.
    -- Stationary point found.
                       ----------------------------
                       !   Optimized Parameters   !
                       ! (Angstroms and Degrees)  !
 ----------------------                            ----------------------
 !      Name          Value   Derivative information (Atomic Units)     !
 ------------------------------------------------------------------------
 !      RCC1         1.3259   -DE/DX =    0.0                           !
 !      RCH1         1.0841   -DE/DX =    0.0                           !
 !      RCH2         1.0841   -DE/DX =    0.0                           !
 !      RCH3         1.0841   -DE/DX =    0.0                           !
 !      RCH4         1.0841   -DE/DX =    0.0                           !
 !      AHCC1      121.5934   -DE/DX =    0.0                           !
 !      AHCC2      121.5936   -DE/DX =    0.0                           !
 !      AHCC3      121.5938   -DE/DX =    0.0                           !
 !      AHCC4      121.594    -DE/DX =    0.0                           !
 !       B1        179.9949   -DE/DX =    0.0                           !
 !       B2          0.0048   -DE/DX =    0.0                           !
 !       B3        179.995    -DE/DX =    0.0                           !
 ------------------------------------------------------------------------
 GradGradGradGradGradGradGradGradGradGradGradGradGradGradGradGradGradGrad

 ---------------------------------------------------------------------------------------------------
                            Z-MATRIX (ANGSTROMS AND DEGREES)
   CD    Cent   Atom    N1       Length/X        N2       Alpha/Y        N3        Beta/Z          J
 ---------------------------------------------------------------------------------------------------
      1      1  C 
      2      2  C        1   1.325855(     1)
      3      3  H        1   1.084129(     2)      2  121.593(     6)
      4      4  H        1   1.084129(     3)      2  121.594(     7)      3  179.995(    10)      0
      5      5  H        2   1.084130(     4)      1  121.594(     8)      3    0.005(    11)      0
      6      6  H        2   1.084130(     5)      1  121.594(     9)      5  179.995(    12)      0
 ---------------------------------------------------------------------------------------------------
                         Z-Matrix orientation:                         
 ---------------------------------------------------------------------
 Center     Atomic      Atomic             Coordinates (Angstroms)
 Number     Number       Type             X           Y           Z
 ---------------------------------------------------------------------
      1          6           0        0.000000    0.000000    0.000000
      2          6           0        0.000000    0.000000    1.325855
      3          1           0        0.923447    0.000000   -0.567963
      4          1           0       -0.923445   -0.000082   -0.567965
      5          1           0        0.923444    0.000078    1.893824
      6          1           0       -0.923442    0.000002    1.893827
 ---------------------------------------------------------------------
                    Distance matrix (angstroms):
                    1          2          3          4          5
     1  C    0.000000
     2  C    1.325855   0.000000
     3  H    1.084129   2.106965   0.000000
     4  H    1.084129   2.106966   1.846892   0.000000
     5  H    2.106969   1.084130   2.461787   3.077565   0.000000
     6  H    2.106971   1.084130   3.077565   2.461792   1.846886
                    6
     6  H    0.000000
 Symmetry turned off by external request.
 Stoichiometry    C2H4
 Framework group  C1[X(C2H4)]
 Deg. of freedom    12
 Full point group                 C1      NOp   1
 Rotational constants (GHZ):    147.0111936     30.3436505     25.1521536

 **********************************************************************

            Population analysis using the SCF density.

 **********************************************************************

 Alpha  occ. eigenvalues --  -10.53854 -10.53737  -0.86175  -0.66290  -0.54359
 Alpha  occ. eigenvalues --   -0.48686  -0.41790  -0.33585
 Alpha virt. eigenvalues --    0.02768   0.03399   0.04082   0.05112   0.07709
 Alpha virt. eigenvalues --    0.08203   0.09727   0.13497   0.16047   0.17371
 Alpha virt. eigenvalues --    0.20006   0.23166   0.31402   0.36123   0.44018
 Alpha virt. eigenvalues --    0.44458   0.54932   0.56334   0.57843   0.64407
 Alpha virt. eigenvalues --    0.65651   0.74273   0.75673   0.76452   0.79898
 Alpha virt. eigenvalues --    0.91498   1.05066   1.15487   1.17081   1.41954
 Alpha virt. eigenvalues --    1.47028   1.47700   1.62412   1.64541   1.64828
 Alpha virt. eigenvalues --    1.66123   1.80484   1.82729   2.00262   2.06807
 Alpha virt. eigenvalues --    2.13589   2.17862   2.19049   2.25500   2.39416
 Alpha virt. eigenvalues --    2.47750   2.57597   2.58354   2.66838   2.71755
 Alpha virt. eigenvalues --    2.79151   2.84124   2.95394   3.18242   3.49938
 Alpha virt. eigenvalues --    3.69230   3.87830   4.14888  23.82938  24.36241
          Condensed to atoms (all electrons):
              1          2          3          4          5          6
     1  C    4.868935   0.675113   0.406109   0.406108  -0.030152  -0.030151
     2  C    0.675113   4.868935  -0.030152  -0.030152   0.406109   0.406108
     3  H    0.406109  -0.030152   0.508268  -0.029232  -0.008678   0.005704
     4  H    0.406108  -0.030152  -0.029232   0.508268   0.005704  -0.008678
     5  H   -0.030152   0.406109  -0.008678   0.005704   0.508269  -0.029233
     6  H   -0.030151   0.406108   0.005704  -0.008678  -0.029233   0.508268
 Mulliken atomic charges:
              1
     1  C   -0.295962
     2  C   -0.295962
     3  H    0.147981
     4  H    0.147981
     5  H    0.147981
     6  H    0.147981
 Sum of Mulliken atomic charges =   0.00000
 Mulliken charges with hydrogens summed into heavy atoms:
              1
     1  C    0.000000
     2  C   -0.000000
 Sum of Mulliken charges with hydrogens summed into heavy atoms =   0.00000
 Electronic spatial extent (au):  <R**2>=            107.8514
 Charge=              0.0000 electrons
 Dipole moment (field-independent basis, Debye):
    X=              0.0000    Y=             -0.0000    Z=              0.0000  Tot=              0.0000
 Quadrupole moment (field-independent basis, Debye-Ang):
   XX=            -12.3105   YY=            -15.8937   ZZ=            -12.2619
   XY=              0.0002   XZ=              0.0000   YZ=              0.0002
 Traceless Quadrupole moment (field-independent basis, Debye-Ang):
   XX=              1.1782   YY=             -2.4050   ZZ=              1.2268
   XY=              0.0002   XZ=              0.0000   YZ=              0.0002
 Octapole moment (field-independent basis, Debye-Ang**2):
  XXX=             -0.0000  YYY=              0.0000  ZZZ=            -24.3862  XYY=             -0.0000
  XXY=             -0.0000  XXZ=             -8.1610  XZZ=             -0.0000  YZZ=              0.0002
  YYZ=            -10.5364  XYZ=              0.0001
 Hexadecapole moment (field-independent basis, Debye-Ang**3):
 XXXX=            -27.2040 YYYY=            -20.1287 ZZZZ=           -101.0428 XXXY=             -0.0001
 XXXZ=             -0.0000 YYYX=             -0.0002 YYYZ=             -0.0004 ZZZX=             -0.0000
 ZZZY=              0.0002 XXYY=             -8.6341 XXZZ=            -18.5904 YYZZ=            -22.8674
 XXYZ=              0.0001 YYXZ=             -0.0000 ZZXY=              0.0002
 N-N= 3.345766676313D+01 E-N=-2.486313032726D+02  KE= 7.820924944544D+01
 1\1\GINC-TT104\FOpt\RM062X\6-311+G(d,p)\C2H4\CARLO\06-Apr-2017\1\\# m0
 62x/6-311+g(d,p) opt=internal # int=ultrafine nosym freq\\geom 0\\0,1\
 C\C,1,RCC1\H,1,RCH1,2,AHCC1\H,1,RCH2,2,AHCC2,3,B1,0\H,2,RCH3,1,AHCC3,3
 ,B2,0\H,2,RCH4,1,AHCC4,5,B3,0\\RCC1=1.32585513\RCH1=1.08412919\RCH2=1.
 08412907\RCH3=1.08412975\RCH4=1.08412966\AHCC1=121.59344672\AHCC2=121.
 59360001\AHCC3=121.5938255\AHCC4=121.59397479\B1=179.99490364\B2=0.004
 82934\B3=179.99501724\\Version=EM64L-G09RevA.02\HF=-78.5635532\RMSD=4.
 466e-09\RMSF=6.159e-06\Dipole=0.0000001,-0.0000006,0.0000019\Quadrupol
 e=0.8759741,-1.7880766,0.9121025,0.0001135,0.0000002,0.0001275\PG=C01 
 [X(C2H4)]\\@


 MOST BUREAUCRACIES FUNCTION LIKE A SEPTIC TANK.
 THE LARGE CHUNKS RISE TO THE TOP.
 Job cpu time:  0 days  0 hours  2 minutes 50.2 seconds.
 File lengths (MBytes):  RWF=      9 Int=      0 D2E=      0 Chk=      2 Scr=      1
 Normal termination of Gaussian 09 at Thu Apr  6 02:30:04 2017.
 Link1:  Proceeding to internal job step number  2.
 ----------------------------------------------------------------------
 #N Geom=AllCheck Guess=TCheck SCRF=Check GenChk RM062X/6-311+G(d,p) Fr
 eq
 ----------------------------------------------------------------------
 1/10=4,29=7,30=1,38=1,40=1/1,3;
 2/12=2,15=1,40=1/2;
 3/5=4,6=6,7=111,11=2,14=-4,16=1,25=1,30=1,70=2,71=2,74=-55,75=-5,116=1/1,2,3;
 4/5=101/1;
 5/5=2,98=1/2;
 8/6=4,10=90,11=11/1;
 11/6=1,8=1,9=11,15=111,16=1,31=1/1,2,10;
 10/6=1,31=1/2;
 6/7=2,8=2,9=2,10=2,18=1,28=1/1;
 7/8=1,10=1,25=1,30=1/1,2,3,16;
 1/10=4,30=1/3;
 99//99;
 ------
 geom 0
 ------
 Z-Matrix taken from the checkpoint file:
 tmp.chk
 Charge =  0 Multiplicity = 1
 C
 C,1,RCC1
 H,1,RCH1,2,AHCC1
 H,1,RCH2,2,AHCC2,3,B1,0
 H,2,RCH3,1,AHCC3,3,B2,0
 H,2,RCH4,1,AHCC4,5,B3,0
      Variables:
 RCC1=1.32585513
 RCH1=1.08412919
 RCH2=1.08412907
 RCH3=1.08412975
 RCH4=1.08412966
 AHCC1=121.59344672
 AHCC2=121.59360001
 AHCC3=121.5938255
 AHCC4=121.59397479
 B1=179.99490364
 B2=0.00482934
 B3=179.99501724
 Recover connectivity data from disk.

 GradGradGradGradGradGradGradGradGradGradGradGradGradGradGradGradGradGrad
 Berny optimization.
 Initialization pass.
                       ----------------------------
                       !    Initial Parameters    !
                       ! (Angstroms and Degrees)  !
 ----------------------                            ----------------------
 !      Name          Value   Derivative information (Atomic Units)     !
 ------------------------------------------------------------------------
 !      RCC1         1.3259   calculate D2E/DX2 analytically            !
 !      RCH1         1.0841   calculate D2E/DX2 analytically            !
 !      RCH2         1.0841   calculate D2E/DX2 analytically            !
 !      RCH3         1.0841   calculate D2E/DX2 analytically            !
 !      RCH4         1.0841   calculate D2E/DX2 analytically            !
 !      AHCC1      121.5934   calculate D2E/DX2 analytically            !
 !      AHCC2      121.5936   calculate D2E/DX2 analytically            !
 !      AHCC3      121.5938   calculate D2E/DX2 analytically            !
 !      AHCC4      121.594    calculate D2E/DX2 analytically            !
 !       B1        179.9949   calculate D2E/DX2 analytically            !
 !       B2          0.0048   calculate D2E/DX2 analytically            !
 !       B3        179.995    calculate D2E/DX2 analytically            !
 ------------------------------------------------------------------------
 Trust Radius=3.00D-01 FncErr=1.00D-07 GrdErr=1.00D-07
 Number of steps in this run=   2 maximum allowed number of steps=   2.
 GradGradGradGradGradGradGradGradGradGradGradGradGradGradGradGradGradGrad

                          Input orientation:                          
 ---------------------------------------------------------------------
 Center     Atomic      Atomic             Coordinates (Angstroms)
 Number     Number       Type             X           Y           Z
 ---------------------------------------------------------------------
      1          6           0        0.000000    0.000000    0.000000
      2          6           0        0.000000    0.000000    1.325855
      3          1           0        0.923447    0.000000   -0.567963
      4          1           0       -0.923445   -0.000082   -0.567965
      5          1           0        0.923444    0.000078    1.893824
      6          1           0       -0.923442    0.000002    1.893827
 ---------------------------------------------------------------------
                    Distance matrix (angstroms):
                    1          2          3          4          5
     1  C    0.000000
     2  C    1.325855   0.000000
     3  H    1.084129   2.106965   0.000000
     4  H    1.084129   2.106966   1.846892   0.000000
     5  H    2.106969   1.084130   2.461787   3.077565   0.000000
     6  H    2.106971   1.084130   3.077565   2.461792   1.846886
                    6
     6  H    0.000000
 Symmetry turned off by external request.
 Stoichiometry    C2H4
 Framework group  C1[X(C2H4)]
 Deg. of freedom    12
 Full point group                 C1      NOp   1
 Rotational constants (GHZ):    147.0111936     30.3436505     25.1521536
 Standard basis: 6-311+G(d,p) (5D, 7F)
 Integral buffers will be    131072 words long.
 Raffenetti 2 integral format.
 Two-electron integral symmetry is turned off.
    68 basis functions,   104 primitive gaussians,    70 cartesian basis functions
     8 alpha electrons        8 beta electrons
       nuclear repulsion energy        33.4576667631 Hartrees.
 NAtoms=    6 NActive=    6 NUniq=    6 SFac= 7.50D-01 NAtFMM=   80 NAOKFM=F Big=F
 One-electron integrals computed using PRISM.
 NBasis=    68 RedAO= T  NBF=    68
 NBsUse=    68 1.00D-06 NBFU=    68
 Initial guess read from the checkpoint file:  tmp.chk
 B after Tr=     0.000000    0.000000    0.000000
         Rot=    1.000000    0.000000    0.000000    0.000000 Ang=   0.00 deg.
 Requested convergence on RMS density matrix=1.00D-08 within 128 cycles.
 Requested convergence on MAX density matrix=1.00D-06.
 Requested convergence on             energy=1.00D-06.
 No special actions if energy rises.
 Keep R1 ints in memory in canonical form, NReq=4152981.
 SCF Done:  E(RM062X) =  -78.5635531700     A.U. after    1 cycles
             Convg  =    0.3681D-08             -V/T =  2.0045
 Range of M.O.s used for correlation:     1    68
 NBasis=    68 NAE=     8 NBE=     8 NFC=     0 NFV=     0
 NROrb=     68 NOA=     8 NOB=     8 NVA=    60 NVB=    60

 **** Warning!!: The largest alpha MO coefficient is  0.46142053D+02

 Symmetrizing basis deriv contribution to polar:
 IMax=3 JMax=2 DiffMx= 0.00D+00
 G2DrvN: will do     7 centers at a time, making    1 passes doing MaxLOS=2.
 Calling FoFCou, ICntrl=  3107 FMM=F I1Cent=   0 AccDes= 0.00D+00.
 FoFDir/FoFCou used for L=0 through L=2.
 End of G2Drv Frequency-dependent properties file   721 does not exist.
 End of G2Drv Frequency-dependent properties file   722 does not exist.
          IDoAtm=111111
          Differentiating once with respect to electric field.
                with respect to dipole field.
          Differentiating once with respect to nuclear coordinates.
          Keep R1 ints in memory in canonical form, NReq=3911427.
          There are    21 degrees of freedom in the 1st order CPHF.  IDoFFX=5.
     18 vectors produced by pass  0 Test12= 2.29D-15 4.76D-09 XBig12= 2.10D+01 3.66D+00.
 AX will form    18 AO Fock derivatives at one time.
     18 vectors produced by pass  1 Test12= 2.29D-15 4.76D-09 XBig12= 1.55D+00 5.17D-01.
     18 vectors produced by pass  2 Test12= 2.29D-15 4.76D-09 XBig12= 3.50D-02 6.32D-02.
     18 vectors produced by pass  3 Test12= 2.29D-15 4.76D-09 XBig12= 1.38D-04 3.79D-03.
     18 vectors produced by pass  4 Test12= 2.29D-15 4.76D-09 XBig12= 4.19D-07 2.11D-04.
     17 vectors produced by pass  5 Test12= 2.29D-15 4.76D-09 XBig12= 7.22D-10 8.15D-06.
      6 vectors produced by pass  6 Test12= 2.29D-15 4.76D-09 XBig12= 1.59D-12 3.91D-07.
      2 vectors produced by pass  7 Test12= 2.29D-15 4.76D-09 XBig12= 2.50D-15 1.58D-08.
 Inverted reduced A of dimension   115 with in-core refinement.
 Isotropic polarizability for W=    0.000000       24.23 Bohr**3.
 End of Minotr Frequency-dependent properties file   721 does not exist.
 End of Minotr Frequency-dependent properties file   722 does not exist.

 **********************************************************************

            Population analysis using the SCF density.

 **********************************************************************

 Alpha  occ. eigenvalues --  -10.53854 -10.53737  -0.86175  -0.66290  -0.54359
 Alpha  occ. eigenvalues --   -0.48686  -0.41790  -0.33585
 Alpha virt. eigenvalues --    0.02768   0.03399   0.04082   0.05112   0.07709
 Alpha virt. eigenvalues --    0.08203   0.09727   0.13497   0.16047   0.17371
 Alpha virt. eigenvalues --    0.20006   0.23166   0.31402   0.36123   0.44018
 Alpha virt. eigenvalues --    0.44458   0.54932   0.56334   0.57843   0.64407
 Alpha virt. eigenvalues --    0.65651   0.74273   0.75673   0.76452   0.79898
 Alpha virt. eigenvalues --    0.91498   1.05066   1.15487   1.17081   1.41954
 Alpha virt. eigenvalues --    1.47028   1.47700   1.62412   1.64541   1.64828
 Alpha virt. eigenvalues --    1.66123   1.80484   1.82729   2.00262   2.06807
 Alpha virt. eigenvalues --    2.13589   2.17862   2.19049   2.25500   2.39416
 Alpha virt. eigenvalues --    2.47750   2.57597   2.58354   2.66838   2.71755
 Alpha virt. eigenvalues --    2.79151   2.84124   2.95393   3.18242   3.49938
 Alpha virt. eigenvalues --    3.69230   3.87830   4.14888  23.82938  24.36241
          Condensed to atoms (all electrons):
              1          2          3          4          5          6
     1  C    4.868934   0.675113   0.406109   0.406108  -0.030152  -0.030151
     2  C    0.675113   4.868936  -0.030152  -0.030152   0.406109   0.406108
     3  H    0.406109  -0.030152   0.508268  -0.029232  -0.008678   0.005704
     4  H    0.406108  -0.030152  -0.029232   0.508268   0.005704  -0.008678
     5  H   -0.030152   0.406109  -0.008678   0.005704   0.508269  -0.029233
     6  H   -0.030151   0.406108   0.005704  -0.008678  -0.029233   0.508268
 Mulliken atomic charges:
              1
     1  C   -0.295961
     2  C   -0.295963
     3  H    0.147981
     4  H    0.147981
     5  H    0.147981
     6  H    0.147981
 Sum of Mulliken atomic charges =  -0.00000
 Mulliken charges with hydrogens summed into heavy atoms:
              1
     1  C    0.000001
     2  C   -0.000001
 Sum of Mulliken charges with hydrogens summed into heavy atoms =  -0.00000
 APT atomic charges:
              1
     1  C   -0.094443
     2  C   -0.094443
     3  H    0.047222
     4  H    0.047222
     5  H    0.047221
     6  H    0.047221
 Sum of APT charges=   0.00000
 APT Atomic charges with hydrogens summed into heavy atoms:
              1
     1  C    0.000001
     2  C   -0.000001
     3  H    0.000000
     4  H    0.000000
     5  H    0.000000
     6  H    0.000000
 Sum of APT charges=   0.00000
 Electronic spatial extent (au):  <R**2>=            107.8514
 Charge=             -0.0000 electrons
 Dipole moment (field-independent basis, Debye):
    X=              0.0000    Y=             -0.0000    Z=              0.0000  Tot=              0.0000
 Quadrupole moment (field-independent basis, Debye-Ang):
   XX=            -12.3105   YY=            -15.8937   ZZ=            -12.2619
   XY=              0.0002   XZ=              0.0000   YZ=              0.0002
 Traceless Quadrupole moment (field-independent basis, Debye-Ang):
   XX=              1.1782   YY=             -2.4050   ZZ=              1.2268
   XY=              0.0002   XZ=              0.0000   YZ=              0.0002
 Octapole moment (field-independent basis, Debye-Ang**2):
  XXX=             -0.0000  YYY=              0.0000  ZZZ=            -24.3862  XYY=             -0.0000
  XXY=             -0.0000  XXZ=             -8.1610  XZZ=             -0.0000  YZZ=              0.0002
  YYZ=            -10.5364  XYZ=              0.0001
 Hexadecapole moment (field-independent basis, Debye-Ang**3):
 XXXX=            -27.2040 YYYY=            -20.1287 ZZZZ=           -101.0429 XXXY=             -0.0001
 XXXZ=             -0.0000 YYYX=             -0.0002 YYYZ=             -0.0004 ZZZX=             -0.0000
 ZZZY=              0.0002 XXYY=             -8.6341 XXZZ=            -18.5904 YYZZ=            -22.8674
 XXYZ=              0.0001 YYXZ=             -0.0000 ZZXY=              0.0002
 N-N= 3.345766676313D+01 E-N=-2.486313034283D+02  KE= 7.820924952542D+01
  Exact polarizability:  21.101   0.000  17.534  -0.000   0.000  34.053
 Approx polarizability:  22.552   0.000  18.920  -0.000  -0.000  40.149
 Calling FoFJK, ICntrl=    100127 FMM=F ISym2X=0 I1Cent= 0 IOpClX= 0 NMat=1 NMatS=1 NMatT=0.
 Full mass-weighted force constant matrix:
 Low frequencies ---  -71.1431  -21.8631   -0.0010   -0.0006   -0.0004   14.5230
 Low frequencies ---  829.7414  987.6202  999.0040
 Diagonal vibrational polarizability:
        0.0723086       3.3896331       0.1727202
 Harmonic frequencies (cm**-1), IR intensities (KM/Mole), Raman scattering
 activities (A**4/AMU), depolarization ratios for plane and unpolarized
 incident light, reduced masses (AMU), force constants (mDyne/A),
 and normal coordinates:
                     1                      2                      3
                     A                      A                      A
 Frequencies --   829.7414               987.6202               999.0030
 Red. masses --     1.0424                 1.1607                 1.5176
 Frc consts  --     0.4228                 0.6671                 0.8924
 IR Inten    --     0.9027               122.8569                 0.0000
  Atom  AN      X      Y      Z        X      Y      Z        X      Y      Z
     1   6     0.04   0.00   0.00    -0.00   0.08  -0.00    -0.00   0.15  -0.00
     2   6     0.04   0.00  -0.00    -0.00   0.08  -0.00     0.00  -0.15   0.00
     3   1    -0.24  -0.00  -0.44     0.00  -0.50   0.00     0.00  -0.49   0.00
     4   1    -0.24  -0.00   0.44     0.00  -0.50   0.00     0.00  -0.49   0.00
     5   1    -0.24  -0.00   0.44     0.00  -0.50   0.00    -0.00   0.49  -0.00
     6   1    -0.24  -0.00  -0.44     0.00  -0.50   0.00    -0.00   0.49  -0.00
                     4                      5                      6
                     A                      A                      A
 Frequencies --  1063.4474              1238.7233              1385.1654
 Red. masses --     1.0078                 1.5236                 1.1878
 Frc consts  --     0.6715                 1.3775                 1.3428
 IR Inten    --     0.0000                 0.0000                 0.0000
  Atom  AN      X      Y      Z        X      Y      Z        X      Y      Z
     1   6    -0.00  -0.00  -0.00     0.15   0.00  -0.00    -0.00   0.00   0.09
     2   6    -0.00   0.00   0.00    -0.15  -0.00  -0.00     0.00  -0.00  -0.09
     3   1    -0.00   0.50  -0.00    -0.14   0.00  -0.47     0.20   0.00   0.45
     4   1     0.00  -0.50   0.00    -0.14  -0.00   0.47    -0.20   0.00   0.45
     5   1     0.00  -0.50   0.00     0.14   0.00  -0.47     0.20  -0.00  -0.45
     6   1    -0.00   0.50  -0.00     0.14  -0.00   0.47    -0.20  -0.00  -0.45
                     7                      8                      9
                     A                      A                      A
 Frequencies --  1470.1518              1711.8615              3160.1162
 Red. masses --     1.1122                 3.3803                 1.0475
 Frc consts  --     1.4163                 5.8364                 6.1635
 IR Inten    --    11.8683                 0.0000                 9.2572
  Atom  AN      X      Y      Z        X      Y      Z        X      Y      Z
     1   6     0.00   0.00   0.07    -0.00   0.00   0.33     0.00  -0.00  -0.04
     2   6    -0.00   0.00   0.07    -0.00  -0.00  -0.33    -0.00  -0.00  -0.04
     3   1    -0.28  -0.00  -0.41    -0.38  -0.00  -0.22    -0.43  -0.00   0.25
     4   1     0.28  -0.00  -0.41     0.38  -0.00  -0.22     0.43   0.00   0.25
     5   1     0.28  -0.00  -0.41    -0.38  -0.00   0.22     0.43   0.00   0.25
     6   1    -0.28  -0.00  -0.41     0.38   0.00   0.22    -0.43  -0.00   0.25
                    10                     11                     12
                     A                      A                      A
 Frequencies --  3176.5427              3239.5635              3265.0420
 Red. masses --     1.0751                 1.1156                 1.1180
 Frc consts  --     6.3918                 6.8983                 7.0224
 IR Inten    --     0.0000                 0.0000                14.6663
  Atom  AN      X      Y      Z        X      Y      Z        X      Y      Z
     1   6    -0.00   0.00   0.06    -0.07  -0.00  -0.00     0.07   0.00   0.00
     2   6    -0.00  -0.00  -0.06     0.07   0.00  -0.00     0.07   0.00  -0.00
     3   1     0.43   0.00  -0.26     0.42  -0.00  -0.26    -0.42  -0.00   0.26
     4   1    -0.43  -0.00  -0.26     0.42   0.00   0.26    -0.42  -0.00  -0.26
     5   1     0.43   0.00   0.26    -0.42  -0.00  -0.26    -0.42  -0.00  -0.26
     6   1    -0.43  -0.00   0.26    -0.42   0.00   0.26    -0.42  -0.00   0.26

 -------------------
 - Thermochemistry -
 -------------------
 Temperature   298.150 Kelvin.  Pressure   1.00000 Atm.
 Atom     1 has atomic number  6 and mass  12.00000
 Atom     2 has atomic number  6 and mass  12.00000
 Atom     3 has atomic number  1 and mass   1.00783
 Atom     4 has atomic number  1 and mass   1.00783
 Atom     5 has atomic number  1 and mass   1.00783
 Atom     6 has atomic number  1 and mass   1.00783
 Molecular mass:    28.03130 amu.
 Principal axes and moments of inertia in atomic units:
                           1         2         3
     Eigenvalues --    12.27622  59.47673  71.75295
           X           -0.00000   1.00000  -0.00004
           Y            0.00001   0.00004   1.00000
           Z            1.00000   0.00000  -0.00001
 This molecule is an asymmetric top.
 Rotational symmetry number  1.
 Rotational temperatures (Kelvin)      7.05542     1.45626     1.20711
 Rotational constants (GHZ):         147.01119    30.34365    25.15215
 Zero-point vibrational energy     134741.3 (Joules/Mol)
                                   32.20393 (Kcal/Mol)
 Vibrational temperatures:   1193.81  1420.96  1437.34  1530.06  1782.24
          (Kelvin)           1992.94  2115.22  2462.98  4546.70  4570.33
                             4661.00  4697.66
 
 Zero-point correction=                           0.051320 (Hartree/Particle)
 Thermal correction to Energy=                    0.054357
 Thermal correction to Enthalpy=                  0.055301
 Thermal correction to Gibbs Free Energy=         0.029146
 Sum of electronic and zero-point Energies=            -78.512233
 Sum of electronic and thermal Energies=               -78.509196
 Sum of electronic and thermal Enthalpies=             -78.508252
 Sum of electronic and thermal Free Energies=          -78.534407
 
                     E (Thermal)             CV                S
                      KCal/Mol        Cal/Mol-Kelvin    Cal/Mol-Kelvin
 Total                   34.110              8.057             55.048
 Electronic               0.000              0.000              0.000
 Translational            0.889              2.981             35.927
 Rotational               0.889              2.981             18.600
 Vibrational             32.332              2.096              0.522
                       Q            Log10(Q)             Ln(Q)
 Total Bot       0.392364D-13        -13.406311        -30.869173
 Total V=0       0.158237D+11         10.199307         23.484772
 Vib (Bot)       0.259595D-23        -23.585704        -54.308089
 Vib (V=0)       0.104692D+01          0.019915          0.045855
 Electronic      0.100000D+01          0.000000          0.000000
 Translational   0.583338D+07          6.765920         15.579107
 Rotational      0.259103D+04          3.413472          7.859810
 -------------------------------------------------------------------
 Center     Atomic                   Forces (Hartrees/Bohr)
 Number     Number              X              Y              Z
 -------------------------------------------------------------------
      1        6           0.000000123   -0.000006930    0.000004012
      2        6           0.000000101    0.000006820   -0.000002144
      3        1           0.000010810    0.000001751    0.000003518
      4        1          -0.000010929    0.000001992    0.000003607
      5        1           0.000011163   -0.000001661   -0.000004450
      6        1          -0.000011267   -0.000001972   -0.000004542
 -------------------------------------------------------------------
 Cartesian Forces:  Max     0.000011267 RMS     0.000006158
 -----------------------------------------------------------------------------------------------
                       Internal Coordinate Forces (Hartree/Bohr or radian)
  Cent   Atom   N1       Length/X         N2         Alpha/Y        N3         Beta/Z          J
 -----------------------------------------------------------------------------------------------
      1  C 
      2  C        1  -0.000011(     1)
      3  H        1   0.000007(     2)      2  -0.000018(     6)
      4  H        1   0.000007(     3)      2  -0.000018(     7)      3   0.000003(    10)     0
      5  H        2   0.000007(     4)      1  -0.000020(     8)      3   0.000001(    11)     0
      6  H        2   0.000007(     5)      1  -0.000020(     9)      5   0.000003(    12)     0
 -----------------------------------------------------------------------------------------------
 Internal  Forces:  Max     0.000020020 RMS     0.000012218

 GradGradGradGradGradGradGradGradGradGradGradGradGradGradGradGradGradGrad
 Berny optimization.
 Search for a local minimum.
 Step number   1 out of a maximum of    2
 All quantities printed in internal units (Hartrees-Bohrs-Radians)
 Second derivative matrix not updated -- analytic derivatives used.
 The second derivative matrix:
                         RCC1      RCH1      RCH2      RCH3      RCH4
           RCC1         0.65387
           RCH1         0.00601   0.36352
           RCH2         0.00601   0.00184   0.36352
           RCH3         0.00601   0.00071  -0.00051   0.36351
           RCH4         0.00601  -0.00051   0.00071   0.00184   0.36351
           AHCC1        0.03265  -0.00139  -0.01782  -0.00193   0.00514
           AHCC2        0.03265  -0.01782  -0.00139   0.00514  -0.00193
           AHCC3        0.03265  -0.00193   0.00514  -0.00139  -0.01782
           AHCC4        0.03265   0.00514  -0.00193  -0.01782  -0.00139
           B1           0.00000   0.00000   0.00000   0.00000   0.00000
           B2           0.00000   0.00000  -0.00000  -0.00000   0.00000
           B3           0.00000   0.00000   0.00000   0.00000   0.00000
                         AHCC1     AHCC2     AHCC3     AHCC4      B1
           AHCC1        0.22435
           AHCC2        0.09913   0.22435
           AHCC3       -0.00306   0.01618   0.22435
           AHCC4        0.01618  -0.00306   0.09913   0.22435
           B1          -0.00001  -0.00000  -0.00000   0.00000   0.07527
           B2          -0.00000   0.00000  -0.00000   0.00000   0.06597
           B3          -0.00000   0.00000  -0.00001  -0.00000   0.02705
                          B2        B3
           B2           0.13080
           B3           0.06540   0.07527
     Eigenvalues ---    0.02258   0.04822   0.10564   0.14194   0.21054
     Eigenvalues ---    0.30237   0.31696   0.36298   0.36324   0.37202
     Eigenvalues ---    0.37316   0.66704
 Angle between quadratic step and forces=  48.57 degrees.
 Linear search not attempted -- first point.
 Variable       Old X    -DE/DX   Delta X   Delta X   Delta X     New X
                                 (Linear)    (Quad)   (Total)
   RCC1       2.50550  -0.00001   0.00000  -0.00001  -0.00001   2.50550
   RCH1       2.04871   0.00001   0.00000   0.00002   0.00002   2.04873
   RCH2       2.04871   0.00001   0.00000   0.00002   0.00002   2.04873
   RCH3       2.04871   0.00001   0.00000   0.00002   0.00002   2.04873
   RCH4       2.04871   0.00001   0.00000   0.00002   0.00002   2.04873
  AHCC1       2.12221  -0.00002   0.00000  -0.00005  -0.00005   2.12216
  AHCC2       2.12221  -0.00002   0.00000  -0.00005  -0.00005   2.12216
  AHCC3       2.12221  -0.00002   0.00000  -0.00006  -0.00006   2.12216
  AHCC4       2.12222  -0.00002   0.00000  -0.00006  -0.00006   2.12216
    B1        3.14150   0.00000   0.00000   0.00009   0.00009   3.14159
    B2        0.00008   0.00000   0.00000  -0.00008  -0.00008   0.00000
    B3        3.14151   0.00000   0.00000   0.00009   0.00009   3.14159
         Item               Value     Threshold  Converged?
 Maximum Force            0.000020     0.000450     YES
 RMS     Force            0.000012     0.000300     YES
 Maximum Displacement     0.000089     0.001800     YES
 RMS     Displacement     0.000055     0.001200     YES
 Predicted change in Energy=-2.645124D-09
 Optimization completed.
    -- Stationary point found.
                       ----------------------------
                       !   Optimized Parameters   !
                       ! (Angstroms and Degrees)  !
 ----------------------                            ----------------------
 !      Name          Value   Derivative information (Atomic Units)     !
 ------------------------------------------------------------------------
 !      RCC1         1.3259   -DE/DX =    0.0                           !
 !      RCH1         1.0841   -DE/DX =    0.0                           !
 !      RCH2         1.0841   -DE/DX =    0.0                           !
 !      RCH3         1.0841   -DE/DX =    0.0                           !
 !      RCH4         1.0841   -DE/DX =    0.0                           !
 !      AHCC1      121.5934   -DE/DX =    0.0                           !
 !      AHCC2      121.5936   -DE/DX =    0.0                           !
 !      AHCC3      121.5938   -DE/DX =    0.0                           !
 !      AHCC4      121.594    -DE/DX =    0.0                           !
 !       B1        179.9949   -DE/DX =    0.0                           !
 !       B2          0.0048   -DE/DX =    0.0                           !
 !       B3        179.995    -DE/DX =    0.0                           !
 ------------------------------------------------------------------------
 GradGradGradGradGradGradGradGradGradGradGradGradGradGradGradGradGradGrad

 1\1\GINC-TT104\Freq\RM062X\6-311+G(d,p)\C2H4\CARLO\06-Apr-2017\1\\#N G
 eom=AllCheck Guess=TCheck SCRF=Check GenChk RM062X/6-311+G(d,p) Freq\\
 geom 0\\0,1\C\C,1,RCC1\H,1,RCH1,2,AHCC1\H,1,RCH2,2,AHCC2,3,B1,0\H,2,RC
 H3,1,AHCC3,3,B2,0\H,2,RCH4,1,AHCC4,5,B3,0\\RCC1=1.32585513\RCH1=1.0841
 2919\RCH2=1.08412907\RCH3=1.08412975\RCH4=1.08412966\AHCC1=121.5934467
 2\AHCC2=121.59360001\AHCC3=121.5938255\AHCC4=121.59397479\B1=179.99490
 364\B2=0.00482934\B3=179.99501724\\Version=EM64L-G09RevA.02\HF=-78.563
 5532\RMSD=3.681e-09\RMSF=6.158e-06\ZeroPoint=0.0513202\Thermal=0.05435
 73\Dipole=0.0000001,-0.0000006,0.0000006\DipoleDeriv=0.084375,0.000018
 3,0.0000003,0.0000179,-0.3297617,0.0000369,0.0000002,0.0000101,-0.0379
 431,0.0843775,0.0000176,-0.0000003,0.0000167,-0.3297624,0.0000358,-0.0
 000002,0.0000098,-0.0379435,-0.0421877,-0.0000064,0.0709893,-0.0000034
 ,0.1648812,-0.0000153,0.0441008,-0.000003,0.0189721,-0.0421871,-0.0000
 118,-0.0709892,-0.0000143,0.1648815,-0.0000215,-0.0441012,-0.0000071,0
 .0189722,-0.0421891,-0.0000116,-0.0709893,-0.0000137,0.1648806,-0.0000
 209,-0.0441029,-0.000007,0.0189711,-0.0421886,-0.0000062,0.0709892,-0.
 0000032,0.1648809,-0.0000151,0.0441033,-0.0000029,0.0189712\Polar=21.1
 008499,0.0001461,17.5339324,-0.0000002,0.0000519,34.0534737\PG=C01 [X(
 C2H4)]\NImag=0\\0.64656408,0.00002327,0.11528728,0.00000055,0.00001811
 ,0.88260784,-0.11427141,-0.00000274,-0.00000006,0.64655902,-0.00000263
 ,-0.05158533,-0.00000415,0.00002180,0.11528781,0.00000006,-0.00000418,
 -0.59440337,-0.00000051,0.00001781,0.88261080,-0.27025558,-0.00000212,
 0.12764123,0.00410888,0.00000018,-0.00262536,0.27902342,-0.00000039,-0
 .03831622,-0.00000197,-0.00000039,0.00646530,0.00000060,0.00000202,0.0
 2471188,0.12274723,-0.00000029,-0.13109236,0.02998700,0.00000010,-0.01
 300978,-0.13805711,0.00000036,0.13794190,-0.27025510,-0.00001825,-0.12
 764170,0.00410894,-0.00000040,0.00262538,-0.01558142,-0.00000164,-0.01
 364325,0.27902290,-0.00002004,-0.03831621,-0.00001347,0.00000019,0.006
 46530,0.00000089,0.00000003,0.00324192,-0.00000024,0.00002031,0.024711
 85,-0.12274777,-0.00001130,-0.13109313,-0.02998693,-0.00000245,-0.0130
 0967,0.01364319,0.00000094,0.00987631,0.13805763,0.00001266,0.13794255
 ,0.00410897,-0.00000037,0.00262544,-0.27025296,-0.00001736,-0.12764119
 ,0.00115418,0.00000065,-0.00021598,0.00155051,-0.00000065,0.00081789,0
 .27902126,0.00000020,0.00646524,0.00000077,-0.00001904,-0.03831654,-0.
 00001274,0.00000019,-0.00888293,0.00000033,-0.00000071,0.01278005,-0.0
 0000020,0.00001932,0.02471206,-0.02998675,-0.00000245,-0.01300954,-0.1
 2274749,-0.00001072,-0.13109361,0.00021596,0.00000034,0.00117720,0.000
 81791,-0.00000017,-0.00489327,0.13805708,0.00001208,0.13794290,0.00410
 903,0.00000021,-0.00262546,-0.27025247,-0.00000158,0.12764162,0.001550
 51,-0.00000024,-0.00081790,0.00115416,0.00000015,0.00021600,-0.0155819
 7,0.00000004,0.01364330,0.27902073,-0.00000040,0.00646524,0.00000071,0
 .00000017,-0.03831654,-0.00000237,-0.00000029,0.01278005,-0.00000026,0
 .00000069,-0.00888291,0.00000036,-0.00000160,0.00324213,0.00000092,0.0
 0000142,0.02471204,0.02998669,0.00000012,-0.01300943,0.12274800,-0.000
 00059,-0.13109436,-0.00081790,-0.00000027,-0.00489327,-0.00021597,0.00
 000033,0.00117720,-0.01364325,-0.00000024,0.00987632,-0.13805757,0.000
 00065,0.13794354\\-0.00000012,0.00000693,-0.00000401,-0.00000010,-0.00
 000682,0.00000214,-0.00001081,-0.00000175,-0.00000352,0.00001093,-0.00
 000199,-0.00000361,-0.00001116,0.00000166,0.00000445,0.00001127,0.0000
 0197,0.00000454\\\@


 WE HAVE LEFT UNDONE THOSE THINGS WHICH WE OUGHT TO HAVE DONE,
 AND WE HAVE DONE THOSE THINGS WHICH WE OUGHT NOT TO HAVE DONE.
                   BOOK OF COMMON PRAYER                      
 Job cpu time:  0 days  0 hours  3 minutes 55.1 seconds.
 File lengths (MBytes):  RWF=      9 Int=      0 D2E=      0 Chk=      2 Scr=      1
 Normal termination of Gaussian 09 at Thu Apr  6 02:30:25 2017.
