
 Working directory              : /scratch/cc/139152/molpro.INeqZRQbvr/
 Global scratch directory       : /scratch/cc/139152/molpro.INeqZRQbvr/
 Wavefunction directory         : /home/chimica2/cavallotti/wfu/
 Main file repository           : /scratch/cc/139152/molpro.INeqZRQbvr/

 id        : polimi

 Nodes     nprocs
 node-6-7     4
 GA implementation: MPI file
 GA implementation (serial work in mppx): MPI file

 Using customized tuning parameters: mindgm=1; mindgv=20; mindgc=4; mindgr=1; noblas=0; minvec=7
 default implementation of scratch files=sf  


 Variables initialized (1015), CPU time= 0.00 sec
  memory,         400 ,m
   nosym
  geometry={angstrom
    C1
    H2   C1   R1
    H3   C1   R2   H2   A2
    H4   C1   R3   H2   A3   H3   D3
    C21 C1 BB H2 ANG1 H3 DH1
    H22 C21 R21 C1 ANG2 H2 DH2
    H23 C21 R22 H22 A22 C1 DH3
    H24 C21 R23 H22 A23 H23 D23
  }
  R1                             =    1.0781000000000001
  R2                             =    1.0781000000000001
  R3                             =    1.0781000000000001
  A2                             =    119.96070000000000
  A3                             =    119.96020000000000
  D3                             =    184.11349999999999
  R21                            =    1.0781000000000001
  R22                            =    1.0781000000000001
  R23                            =    1.0781000000000001
  A22                            =    119.94170000000000
  A23                            =    119.97270000000000
  D23                            =    175.90629999999999
  ANG2                           =    91.117599999999996
  DH3                            =    91.592399999999998
  DH2                            =    59.390999999999998
  DH1                            =    91.754599999999996
  ANG1                           =    91.137500000000003
  BB                             =    3.3999999999999999
 
   basis=cc-pvdz
   {multi;closed, 8;occ,10;wf, 18,1,0,;state,1;maxiter,40}
   {RS2,SHIFT=0.2;ORBITAL,IGNORE_ERROR;STATE,1}
   CBSen = energy
  put,molden,molpro.molden
 Commands initialized (834), CPU time= 0.01 sec, 672 directives.
 Default parameters read. Elapsed time= 0.17 sec

 Checking input...
 Passed
1


                                         ***  PROGRAM SYSTEM MOLPRO  ***
                                       Copyright, TTI GmbH Stuttgart, 2015
                                    Version 2022.2 linked Thu Sep 29 12:37:28 2022


 **********************************************************************************************************************************
 LABEL *                                                                                 
  64 bit mpp version                                                                     DATE: 27-May-23          TIME: 09:30:48  
 **********************************************************************************************************************************

 SHA1:             51306cdc306ce2a111a2867affebcb289530e0a7
 **********************************************************************************************************************************

 Memory per process:       400 MW
 Total memory per node:   1600 MW

 GA preallocation disabled
 GA check disabled

 Variable memory set to 400.0 MW

 ZSYMEL=NOSYM

 SETTING R1             =         1.07810000                                  
 SETTING R2             =         1.07810000                                  
 SETTING R3             =         1.07810000                                  
 SETTING A2             =       119.96070000                                  
 SETTING A3             =       119.96020000                                  
 SETTING D3             =       184.11350000                                  
 SETTING R21            =         1.07810000                                  
 SETTING R22            =         1.07810000                                  
 SETTING R23            =         1.07810000                                  
 SETTING A22            =       119.94170000                                  
 SETTING A23            =       119.97270000                                  
 SETTING D23            =       175.90630000                                  
 SETTING ANG2           =        91.11760000                                  
 SETTING DH3            =        91.59240000                                  
 SETTING DH2            =        59.39100000                                  
 SETTING DH1            =        91.75460000                                  
 SETTING ANG1           =        91.13750000                                  
 SETTING BB             =         3.40000000                                  
 SETTING BASIS          =    CC-PVDZ


 Recomputing integrals since basis changed


 Using spherical harmonics

 Library entry C      S cc-pVDZ              selected for orbital group  1
 Library entry C      P cc-pVDZ              selected for orbital group  1
 Library entry C      D cc-pVDZ              selected for orbital group  1
 Library entry H      S cc-pVDZ              selected for orbital group  2
 Library entry H      P cc-pVDZ              selected for orbital group  2


 PROGRAM * SEWARD (Integral evaluation for generally contracted gaussian basis sets)     Author: Roland Lindh, 1990

 Geometry written to block  1 of record 700

 Orientation using atomic masses  
 Molecule type: Asymmetric top
 Rotational constants:       5.5611720      5.5612239     71.9298453 GHz  (calculated with average atomic masses)

 Point group  C1  



 ATOMIC COORDINATES

 NR  ATOM    CHARGE       X              Y              Z

   1  C1      6.00    0.000004147   -0.000442860   -3.212514001
   2  H2      1.00    0.463406819    1.983051444   -3.253202628
   3  H3      1.00    1.486308627   -1.393430712   -3.246145737
   4  H4      1.00   -1.949076839   -0.591192609   -3.264909580
   5  C21     6.00   -0.000109283    0.000374831    3.212554770
   6  H22     1.00   -1.471289331    1.409173528    3.252086420
   7  H23     1.00    1.955402129    0.571138373    3.241732702
   8  H24     1.00   -0.483498561   -1.977929368    3.269953005

 Bond lengths in Bohr (Angstrom)

 1-2  2.037313735  1-3  2.037313735  1-4  2.037313735  5-6  2.037313735  5-7  2.037313735
     ( 1.078100000)     ( 1.078100000)     ( 1.078100000)     ( 1.078100000)     ( 1.078100000)

 5-8  2.037313735
     ( 1.078100000)

 Bond angles

  2-1-3  119.96070000   2-1-4  119.96020000   3-1-4  119.95115402   6-5-7  119.94170000

  6-5-8  119.97270000   7-5-8  119.95886489

 NUCLEAR CHARGE:                   18
 NUMBER OF PRIMITIVE AOS:          96
 NUMBER OF SYMMETRY AOS:           94
 NUMBER OF CONTRACTIONS:           58   (   58A   )
 NUMBER OF INNER CORE ORBITALS:     0   (    0A   )
 NUMBER OF OUTER CORE ORBITALS:     2   (    2A   )
 NUMBER OF VALENCE ORBITALS:       14   (   14A   )


 NUCLEAR REPULSION ENERGY   31.55389135


 Eigenvalues of metric

         1 0.141E-01 0.157E-01 0.347E-01 0.347E-01 0.356E-01 0.356E-01 0.412E-01 0.426E-01


 Contracted 2-electron integrals neglected if value below      1.0D-11
 AO integral compression algorithm  1   Integral accuracy      1.0D-11

     7.078 MB (compressed) written to integral file ( 52.3%)

     Node minimum: 1.573 MB, node maximum: 1.835 MB


 NUMBER OF SORTED TWO-ELECTRON INTEGRALS:     365512.     BUFFER LENGTH:  32768
 NUMBER OF SEGMENTS:   1  SEGMENT LENGTH:     365512      RECORD LENGTH: 524288

 Memory used in sort:       0.92 MW

 SORT1 READ     1705368. AND WROTE      348418. INTEGRALS IN      1 RECORDS. CPU TIME:     0.08 SEC, REAL TIME:     0.15 SEC
 SORT2 READ     1390552. AND WROTE     1464616. INTEGRALS IN     28 RECORDS. CPU TIME:     0.01 SEC, REAL TIME:     0.04 SEC

 Node minimum:      365512.  Node maximum:      366796. integrals

 OPERATOR DM      FOR CENTER  0  COORDINATES:    0.000000    0.000000    0.000000


 **********************************************************************************************************************************
 DATASETS  * FILE   NREC   LENGTH (MB)   RECORD NAMES
              1      18       28.78       500      610      700      900      950      970     1000      129      960     1100   
                                          VAR    BASINP    GEOM    SYMINP    ZMAT    AOBASIS   BASIS     P2S    ABASIS      S 
                                         1400     1410     1200     1210     1080     1600     1650     1700   
                                           T        V       H0       H01     AOSYM     SMH    MOLCAS    OPER   

 PROGRAMS   *        TOTAL       INT
 CPU TIMES  *         0.61      0.44
 REAL TIME  *         1.32 SEC
 DISK USED  *        29.15 MB (local),      137.92 MB (total)
 GA USED    *         0.00 MB       (max)       0.00 MB       (current)
 **********************************************************************************************************************************

 PROGRAM * MULTI (Direct Multiconfiguration SCF)       Authors: P.J. Knowles, H.-J. Werner (1984)
                                                                D.A. Kreplin, P.J. Knowles, H.-J. Werner (2019)

 Number of closed-shell orbitals:   8 (    8)
 Number of active  orbitals:        2 (    2)
 Number of external orbitals:      48 (   48)

 State symmetry 1

 Number of active electrons:   2    Spin symmetry=Singlet   Space symmetry=1
 Number of states:             1
 Number of CSFs:               3   (4 determinants, 4 intermediate states)

 Orbital guess generated from atomic densities. Full valence occupancy:   16

 Wavefunction dump at record             2140.2

 Convergence thresholds  0.10E-04 (gradient)  0.10E-05 (energy)
 
 Number of orbital rotations:  496  ( 16 closed/active, 384 closed/virtual, 0 active/active, 96 active/virtual )
 Total number of variables:    500
 
 Second-order MCSCF: L-BFGS accelerated
 
 ITER  MIC  NCI  NEG     ENERGY(VAR)    ENERGY(PROJ) ENERGY CHANGE       GRAD(0)  GRAD(ORB)   GRAD(CI)      STEP      TIME
   1    5    4    0    -79.10774796     -79.12267099   -0.01492304    0.17836909 0.00011040 0.00000000  0.91E-01      1.79
   2    7    6    0    -79.12260298     -79.12260575   -0.00000277    0.00247744 0.00000002 0.00000000  0.13E-02      3.66
   3    3    3    0    -79.12260575     -79.12260575   -0.00000000    0.00000079 0.00000000 0.00000000  0.42E-06      5.46

 CONVERGENCE REACHED!  Final gradient:    0.00000000 ( 0.50E-09)
                       Final energy:    -79.12260575
 
 First order charge density matrix for state 1.1 saved on record 2140.2 (density set 1)
 
 Results for state 1.1
 =====================
 !MCSCF STATE 1.1 Energy                       -79.122605746936
 Nuclear energy                                 31.55389135
 Kinetic energy                                 78.96247895
 One electron energy                          -167.58122963
 Two electron energy                            56.90473253
 Virial ratio                                    2.00202788
 
 !MCSCF STATE 1.1 Dipole moment                  0.00022223     0.00013851    -0.00008860
 Dipole moment /Debye                            0.00056486     0.00035205    -0.00022519
 
 No non-zero expectation values
 
 
 Natural orbital dump at molpro section 2140.2 (Orbital set 2)


 **********************************************************************************************************************************
 DATASETS  * FILE   NREC   LENGTH (MB)   RECORD NAMES
              1      19       30.97       500      610      700      900      950      970     1000      129      960     1100   
                                          VAR    BASINP    GEOM    SYMINP    ZMAT    AOBASIS   BASIS     P2S    ABASIS      S 
                                         1400     1410     1200     1210     1080     1600     1650     1700     1380   
                                           T        V       H0       H01     AOSYM     SMH    MOLCAS    OPER     JKOP   

              2       4        0.54       700     1000      520     2140   
                                         GEOM     BASIS   MCVARS    MCSCF   

 PROGRAMS   *        TOTAL     MULTI       INT
 CPU TIMES  *         3.59      2.96      0.44
 REAL TIME  *         7.18 SEC
 DISK USED  *        31.56 MB (local),      147.55 MB (total)
 SF USED    *         7.22 MB
 GA USED    *         0.00 MB       (max)       0.00 MB       (current)
 **********************************************************************************************************************************


 PROGRAM * RS2 (Multireference RS Perturbation Theory)     Authors: H.-J. Werner (1993), P. Celani (1998)


 Level shift= 0.20

 Convergence thresholds:  THRVAR = 1.00D-08  THRDEN = 1.00D-06

 Number of optimized states: 1  Roots:    1
 Number of reference states: 1  Roots:    1

 Reference symmetry:                   1   Singlet 
 Number of electrons:                 18
 Maximum number of shells:             4
 Maximum number of spin couplings:     5

 Reference space:        3 conf        3 CSFs
 N elec internal:       36 conf       36 CSFs
 N-1 el internal:       62 conf       98 CSFs
 N-2 el internal:       76 conf      184 CSFs

 Number of electrons in valence space:                     14
 Maximum number of open shell orbitals in reference space:  2
 Maximum number of open shell orbitals in internal spaces:  6


 Number of core orbitals:           2 (   2 )
 Number of closed-shell orbitals:   6 (   6 )
 Number of active  orbitals:        2 (   2 )
 Number of external orbitals:      48 (  48 )

 Molecular orbitals read from record     2140.2  Type=MCSCF/NATURAL (state 1.1)

 Integral transformation finished. Total CPU:   0.02 sec, npass=  1  Memory used:   0.33 MW


 Number of p-space configurations:   3

 Reference wavefunction optimized for reference space (refopt=1)

 State     Reference Energy 
     1       -79.12260575

 Number of blocks in overlap matrix:     2   Smallest eigenvalue:  0.10D+01
 Number of N-2 electron functions:      61
 Number of N-1 electron functions:      98

 Number of internal configurations:                   36
 Number of singly external configurations:          4704
 Number of doubly external configurations:         70440
 Total number of contracted configurations:        75180
 Total number of uncontracted configurations:     216660

 Weight factors for SA-density in H0:    1.000000

 FIMAX=  0.35D-02  FXMAX=  0.98D-13  DIAG=  F  T  NOREF=1  NOINT=0  IHPPD=2

 Nuclear energy:                      31.55389135
 Core energy:                        -75.48986842
 Zeroth-order valence energy:         -8.35261995
 Zeroth-order total energy:          -52.28859702
 First-order energy:                 -26.83400873

 Using uncontracted singles

 Diagonal Coupling coefficients finished.               Storage:    3121 words, CPU-Time:      0.00 seconds.
 Energy denominators for pairs finished in 0 passes.    Storage:    7322 words, CPU-time:      0.00 seconds.

 A level shift of 0.20 is applied.

  ITER. STATE  ROOT     SQ.NORM     CORR.ENERGY   TOTAL ENERGY   ENERGY CHANGE       DEN1      VAR(S)    VAR(P)      TIME
    1     1     1     1.01171151    -0.00234230   -79.12494805    -0.00234230    -0.25306470  0.12D-01  0.72D-01     0.05
    2     1     1     1.08361127    -0.26966506   -79.39227081    -0.26732276     0.00010686  0.29D-04  0.14D-04     0.06
    3     1     1     1.08356868    -0.26972954   -79.39233528    -0.00006447    -0.00003499  0.62D-07  0.60D-07     0.07
    4     1     1     1.08360223    -0.26973646   -79.39234221    -0.00000692     0.00000030  0.42D-09  0.13D-09     0.07
    5     1     1     1.08360221    -0.26973645   -79.39234220     0.00000001    -0.00000009  0.88D-12  0.10D-11     0.08

 Energies without level shift correction:

    5     1     1     1.08360221    -0.25301601   -79.37562176

 Energy contributions for state 1.1:
 ===================================

            Energy contr.      SQ.Norm of FOWF
 Space I     -0.00016236          0.00009962
 Space S     -0.02471985          0.01164031
 Space P     -0.22813380          0.07186227


 =====================================
 Analysis of CPU times by interactions
 =====================================

       I      S      P

 I   0.0%
 S   0.0%   0.0%
 P   0.0%   0.0%  37.5%

 Initialization:  62.5%
 Other:            0.0%

 Total CPU:        0.1 seconds
 =====================================



 Reference coefficients greater than 0.0500000
 =============================================
 22222220           0.8057463
 22222202          -0.5922608


 RESULTS FOR STATE 1.1
 =====================

 Coefficient of reference function:   C(0) = 1.00000000 (fixed)   1.00000000 (relaxed)

 Energy contributions of configuration classes

 CLASS          SQ.NORM        ECORR1        ECORR2
 +++++++++++++++++++++++++++++++++++++++++++++++++++
 Internals    0.00009962   -0.00016236    0.26939027
 Singles      0.01164031   -0.02471985   -0.05270690
 Pairs        0.07186227   -0.22813380   -0.48641982
 Total        1.08360221   -0.25301601   -0.26973645
 +++++++++++++++++++++++++++++++++++++++++++++++++++


 Reference energy                     -79.12260575
 Nuclear energy                        31.55389135
 Kinetic energy                        79.14042621
 One electron energy                 -167.46061631
 Two electron energy                   56.51438276
 Virial quotient                       -1.00318315
 Correlation energy                    -0.26973645
 !RSPT2 STATE 1.1 Energy              -79.392342198315

 Properties without orbital relaxation:

 !RSPT2 STATE 1.1 Dipole moment         0.00023047     0.00014373    -0.00009063
 Dipole moment /Debye                   0.00058580     0.00036532    -0.00023036


 **********************************************************************************************************************************
 DATASETS  * FILE   NREC   LENGTH (MB)   RECORD NAMES
              1      19       30.97       500      610      700      900      950      970     1000      129      960     1100   
                                          VAR    BASINP    GEOM    SYMINP    ZMAT    AOBASIS   BASIS     P2S    ABASIS      S 
                                         1400     1410     1200     1210     1080     1600     1650     1700     1380   
                                           T        V       H0       H01     AOSYM     SMH    MOLCAS    OPER     JKOP   

              2       4        0.54       700     1000      520     2140   
                                         GEOM     BASIS   MCVARS    MCSCF   

 PROGRAMS   *        TOTAL       RS2     MULTI       INT
 CPU TIMES  *         3.73      0.15      2.96      0.44
 REAL TIME  *         7.68 SEC
 DISK USED  *        31.56 MB (local),      147.55 MB (total)
 SF USED    *         8.83 MB
 GA USED    *         0.00 MB       (max)       0.00 MB       (current)
 **********************************************************************************************************************************
 SETTING CBSEN          =       -79.39234220  AU                              

 Dump information in style MOLDEN to molpro.molden                                                                   

 Molecular orbitals read from record     2140.2  Type=MCSCF/NATURAL (state 1.1)
 Occupation numbers read from record     2140.2  Type=MCSCF/NATURAL (state 1.1)
 Orbital energies read from record       2140.2  Type=MCSCF/NATURAL (state 1.1)
 Redundancy group numbers read from rec  2140.2  Type=MCSCF/NATURAL (state 1.1)

 DUMP ORBITAL  1.1 AS ORBITAL    1  occ=    2.0000  eig=  -11.2282  GROUP=   2
 DUMP ORBITAL  2.1 AS ORBITAL    2  occ=    2.0000  eig=  -11.2282  GROUP=   2
 DUMP ORBITAL  3.1 AS ORBITAL    3  occ=    2.0000  eig=   -0.8998  GROUP=   2
 DUMP ORBITAL  4.1 AS ORBITAL    4  occ=    2.0000  eig=   -0.8924  GROUP=   2
 DUMP ORBITAL  5.1 AS ORBITAL    5  occ=    2.0000  eig=   -0.5697  GROUP=   2
 DUMP ORBITAL  6.1 AS ORBITAL    6  occ=    2.0000  eig=   -0.5697  GROUP=   2
 DUMP ORBITAL  7.1 AS ORBITAL    7  occ=    2.0000  eig=   -0.5654  GROUP=   2
 DUMP ORBITAL  8.1 AS ORBITAL    8  occ=    2.0000  eig=   -0.5653  GROUP=   2
 DUMP ORBITAL  9.1 AS ORBITAL    9  occ=    1.2985  eig=   -0.1518  GROUP=   3
 DUMP ORBITAL 10.1 AS ORBITAL   10  occ=    0.7015  eig=   -0.0438  GROUP=   3

 Total charge:      18.000000

 **********************************************************************************************************************************

 RS2/cc-pVDZ energy=    -79.392342198315

             RS2           MULTI
    -79.39234220    -79.12260575
 **********************************************************************************************************************************
 Molpro calculation terminated
