[Molden Format]
[Molpro variables]
_NUMVAR=  1056.000000000000    
_AVOGAD= 0.6022140760000000E+24
_BOLTZ= 0.1380649000000000E-22
_CLIGHTSI=  299792458.0000000    
_JOULE= 0.4359744722207100E-17
_JPCAL=  4.184000000000000    
_PLANCK= 0.6626070150000000E-33
_BOHR= 0.5291772109030000E-10
_ECHARG= 0.1602176634000000E-18
_ENULL= 0.8854187812800001E-11
_MU= 0.1660539066600000E-26
_EMASS= 0.9109383701500001E-30
_AMU2AU=  1822.888486217313    
_CLIGHT=  29979245800.00000    
_EV= 0.3674932217565494E-01
_KJOULE= 0.3808798847133432E-03
_KJOULE/MOL= 0.3808798847133432E-03
_CM= 0.4556335252912009E-05
_CM-1= 0.4556335252912009E-05
_DEB2SI= 0.3335640951981520E-29
_KCAL= 0.1593601437640628E-02
_KCAL/MOL= 0.1593601437640628E-02
_KELVIN= 0.3166811563455608E-05
_HERTZ= 0.1519829846057038E-15
_HZ= 0.1519829846057038E-15
_TOA= 0.5291772109030000    
_TOANG= 0.5291772109030000    
_TORAD= 0.1745329251994330E-01
_TOCM=  219474.6313631965    
_TODEBYE=  2.541746473194078    
_TOE= 0.4803204712570263E-09
_TOEV=  27.21138624598803    
_TOHERTZ=  6579683920501656.    
_TOHZ=  6579683920501656.    
_TOK=  315775.0248040668    
_TOKCAL=  627.5094740630558    
_TOKELVIN=  315775.0248040668    
_TOKJ=  2625.499639479825    
_TOKJOULE=  2625.499639479825    
_TOKG= 0.1660539066600000E-26
_ANG=  1.889726124625770    
_ANGSTROM=  1.889726124625770    
_RPAREF=  0.000000000000000    
_RPADISS=  0.000000000000000    
_IGNORE_UNDEF=  2.000000000000000    
_STRICTCHECK=  0.000000000000000    
!SEWARD=  0.000000000000000    
!MULTI=  0.000000000000000    
!DFMULTI=  0.000000000000000    
_SEW_ONEEL=  0.000000000000000    
_CPPDONE=FALSE
_DKROLL_DONE=  0.000000000000000    
_FNUC_DONE=  0.000000000000000    
_FOCKDONE=  0.000000000000000    
_GRADONE=FALSE
_HESSDONE=FALSE
_INTDONE=TRUE
_SCFDONE=FALSE
_MODUL_BLOCK=FALSE
_MODUL_CUDA=FALSE
_MODUL_SLATER=FALSE
_MODUL_MRCC=TRUE
_MODUL_NBO6=FALSE
_MODUL_NECI=FALSE
_MODUL_AIMS=TRUE
_MODUL_GECCO=FALSE
_ISWINDOWS=FALSE
_MRCC_EXEC=/software/cinetica/mrcc/bin/dmrcc
_FITC_AO_SAVED=FALSE
_FITC_MO_SAVED=FALSE
_SHARED_FS=TRUE
_LSTYP=SEWARD
_INTYP=INTS
_GEOMTYP=ZMAT
_GRADTYP=ALASKA
_DIRECT=FALSE
_DKHO= -1.000000000000000    
_FNUC=  0.000000000000000    
_SYNCM=  0.000000000000000    
_BASIS=CC-PVDZ
_ZORIENT=  1.000000000000000    
!ZORIENT=  0.000000000000000    
_NELEC=  18.00000000000000    
!SPIN=  0.000000000000000    
_QSDSTEP=  0.000000000000000    
_QSDIRC=  0.000000000000000    
_PROGRAM=RS2
_CPUSTEP= 0.1400000000000006    
_SYSSTEP= 0.5999999999999994E-01
_WALLSTEP= 0.5000000000000000    
!DFMP2=  0.000000000000000    
!DFHFENERG=  0.000000000000000    
!SCSGRD=  0.000000000000000    
_CPUTOT=  3.730000000000000    
_DMX= 0.2304702619942586E-03
_DMY= 0.1437264455535357E-03
_DMZ=-0.9062870764958188E-04
_EMP2= -79.39234219831479    
_ENERGR= -79.12260574693596    
_ENERGU= -79.37562175716920    
_ENERGY= -79.39234219831479    
_ENERGY_METHOD=RS2
_ENERGY_BASIS=cc-pVDZ
_GEOMETRY_METHOD=
_GEOMETRY_BASIS=
_ENERGY_AVRG= -79.12260574693589    
_ENUC=  31.55389135244988    
_GRADMETHOD=  9.000000000000000    
_NMRMETHOD=  0.000000000000000    
_NMRMAGNET=  0.000000000000000    
!GRID_FREEZE= -1.000000000000000    
!NEESE_INDEX=  0.000000000000000    
_ITERATIONS=  4.000000000000000    
_LASTNELEC=  2.000000000000000    
_LASTSPIN=  0.000000000000000    
_LASTSYM=  1.000000000000000    
_MPP_PROG=  1.000000000000000    
_MSNSTATES=  0.000000000000000    
_RS2PHASE=  0.000000000000000    
_IPROC_MPP=  0.000000000000000    
_IPROC_MPPX=  0.000000000000000    
_NPROC_MPP=  4.000000000000000    
_NPROC_MPPX=  4.000000000000000    
_NPROC_SMP=  1.000000000000000    
_NUMSTEP=  0.000000000000000    
_ORBITAL=  2140.200000000000    
_PI=  3.141592653589793    
!MCACT=  2.000000000000000    
!MCCLOSED=  8.000000000000000    
!MCFREEZE=  0.000000000000000    
!MCMS2=  0.000000000000000    
!MCNEL=  2.000000000000000    
!MCNSTSYM=  1.000000000000000    
!MCSTATE=  1.000000000000000    
!MCSYM=  1.000000000000000    
!MCWEIGHT=  1.000000000000000    
_SEIG_MIN= 0.1414104700798219E-01
_SEWPROP=TRUE
_STATUS=  1.000000000000000    
_SYSTOT= 0.6100000000000000    
_VERSION=  2022002.000000000    
_WALLTOT=  7.680000000000000    
_DATE=27-May-23
_LASTORB=MCSCF
_OUTPUT=/home/chimica2/cavallotti/qm/barrierless/vrc_autom/folders/ch3+ch3/dist_3.4/molpro.out
_PGROUP=C1
_TIME=09:30:48
_LIBMOL=/software/cinetica/molpro_2022.2/lib/
_VIGRDC=  0.000000000000000    
!VIBCNT=  0.000000000000000    
!RGHFCNT=  0.000000000000000    
!SURFREC=  0.000000000000000    
!XSURFREC=  0.000000000000000    
!XPOLYREC=  0.000000000000000    
!ROTREC=  0.000000000000000    
!POLYREC=  0.000000000000000    
!DIPREC=  0.000000000000000    
!DIP4DREC=  0.000000000000000    
!DIPROT=  0.000000000000000    
!DIP4DROT=  0.000000000000000    
!PTREC=  0.000000000000000    
!PT4DREC=  0.000000000000000    
!VSCFREC=  0.000000000000000    
!VCIREC=  0.000000000000000    
!PVCIREC=  0.000000000000000    
!VMP2REC=  0.000000000000000    
!VMCSCFREC=  0.000000000000000    
!VMRCIREC=  0.000000000000000    
!VIBSTATEREC=  0.000000000000000    
!VIBSTATECNT=  0.000000000000000    
!VIBINFO=  0.000000000000000    
!GAREC=  0.000000000000000    
!MCORB=  21402.00000000000    
!DEFCORE=  2.000000000000000    
!SCORE=  0.000000000000000    
!NEWMOL= -1.000000000000000    
!NEWSYM= -1.000000000000000    
_SLFILES=slscratch
_NGSSTO=  9.000000000000000    
_SIN=SIN
_COS=COS
_TAN=TAN
_ACOS=ACOS
_ASIN=ASIN
_ATAN=ATAN
_COSH=COSH
_SINH=SINH
_TANH=TANH
_ABS=ABS
_MOD=MOD
_ERF=ERF
_REFC=REFC
_ERFC=ERFC
_HYPOT=HYPOT
_J0=J0
_J1=J1
_JN=JN
_GAMMA=GAMMA
_LGAMMA=LGAMMA
_Y0=Y0
_Y1=Y1
_YN=YN
_EXP=EXP
_LOG=LOG
_LOG10=LOG10
_SQRT=SQRT
_INT=INT
_NINT=NINT
_MAX=MAX
_MIN=MIN
_COSMO=  0.000000000000000    
_COSMOIT=  0.000000000000000    
_COSMOES=  0.000000000000000    
_COSMOEDS=  0.000000000000000    
_COSMOEC=  0.000000000000000    
_COSMOEDCORR=  0.000000000000000    
_FEPSI=  1.000000000000000    
_SL_IsMM=  0.000000000000000    
_SL_NSYM=  1.000000000000000    
_SL_System_BitSw=  0.000000000000000    
_SL_Unique_atoms=  0.000000000000000    
_SL_GRAD=  0.000000000000000    
_SL_MAXUPD_Hess=  5.000000000000000    
_SL_N_PRINT_COD=  5.000000000000000    
_SL_PRINT_CODES=  0.000000000000000    
_SL_BasType=  0.000000000000000    
_SL_Energy_Pred=  0.000000000000000    
_SL_New_Coords=  0.000000000000000    
_SL_Total_Nuclea=  0.000000000000000    
_SL_Highest_Mltp=  0.000000000000000    
_SL_Ref_Geom=  0.000000000000000    
_SL_Symmetry_ope=  1.000000000000000    
_SL_agrad=  0.000000000000000    
_SL_GrdMax=  0.000000000000000    
_SL_GrdNorm=  0.000000000000000    
_SL_GrdRMS=  0.000000000000000    
_SL_Hss_Q=  0.000000000000000    
_SL_Hss_X=  0.000000000000000    
_SL_BMxOld=  0.000000000000000    
_SL_KtB=  0.000000000000000    
_SL_TROld=  0.000000000000000    
_SL_No_of_Intern=  0.000000000000000    
_SL_Hess=  0.000000000000000    
_SL_K=  0.000000000000000    
!LATTICE= -1.000000000000000    
!NEWLATTICE=  0.000000000000000    
!LATGRAD_VAR=FALSE
!SEW_LATTICE=  1.000000000000000    
!AIC_ONEEL=  0.000000000000000    
!LOCAL=  0.000000000000000    
!SAVEDOM= -1.000000000000000    
!RESTDOM= -1.000000000000000    
!SAVEDOM_HF= -1.000000000000000    
!RESTDOM_HF= -1.000000000000000    
!HESSREC=  0.000000000000000    
!FREQREC=  0.000000000000000    
!NMODREC=  0.000000000000000    
!GTASKS=  0.000000000000000    
!HTASKS=  0.000000000000000    
!SAVEDOM_EOM= -1.000000000000000    
!RESTDOM_EOM= -1.000000000000000    
!GRADSTATE= -1.000000000000000    
!DEBUG=  0.000000000000000    
!CFIT_CPHF=  0.000000000000000    
!RDOMAUX_CPHF=  0.000000000000000    
!THRAO_CPHF= 0.1000000000000000E-11
!THRMO_CPHF= 0.1000000000000000E-11
!THROV_CPHF= 0.1000000000000000E-11
!THRSW_CPHF= 0.1000000000000000E-11
!THRPROD_CPHF= 0.1000000000000000E-11
!THRAOPR_CPHF= 0.1000000000000000E-11
!CFIT_SCFGRD=  0.000000000000000    
!RDOMAUX_SCFGRD=  0.000000000000000    
!THRAO_SCFGRD= 0.1000000000000000E-11
!THRMO_SCFGRD= 0.1000000000000000E-11
!THROV_SCFGRD= 0.1000000000000000E-11
!THRSW_SCFGRD= 0.1000000000000000E-11
!THRPROD_SCFGRD= 0.1000000000000000E-11
!THRAOPR_SCFGRD= 0.1000000000000000E-11
!LOCFIT_SCF=  0.000000000000000    
!LOCFIT_MP2=  0.000000000000000    
_RIDOM=  0.000000000000000    
!CC2_METHOD=  0.000000000000000    
_BASIS2006=FALSE
_SVDDEL= -1.000000000000000    
_SVDDELA= -1.000000000000000    
_SVDDELP= -1.000000000000000    
_SVDDELF= -1.000000000000000    
_SVDDELS= -1.000000000000000    
_SVDDEL_ABS= -1.000000000000000    
_SVDDELA_ABS= -1.000000000000000    
_SVDDELP_ABS= -1.000000000000000    
_SVDDELF_ABS= -1.000000000000000    
_SVDDELS_ABS= -1.000000000000000    
_MAXBASIS=  0.000000000000000    
!OPT_CONICAL=  0.000000000000000    
!CLEARSP_JGRID=  0.000000000000000    
_GRDHYBR=  0.000000000000000    
_STATEGRAD=  1.000000000000000    
_4EXT_NDISKS=  1.000000000000000    
!EMBEDFLAG=  1.000000000000000    
!EMBED=FALSE
!EMBED_F12=FALSE
!EMBEDNUC=  0.000000000000000    
_EMBEDENERGY=  0.000000000000000    
!EMBED_DFC=FALSE
!NUM_VOIDS=  0.000000000000000    
_IBODY=  0.000000000000000    
_EMBE_CORR=  0.000000000000000    
!EMBED_PROJ=FALSE
!EMB_PROJ_ZMU=  1000000.000000000    
!CORRECTION_HF=  0.000000000000000    
!EMBED_AORB=  0.000000000000000    
!EMBED_NACORR=  0.000000000000000    
!EMBED_MP2=FALSE
!EMBED_TRUNC_PERTURBATION=FALSE
!EMBED_FROZEN=  0.000000000000000    
!EMBED_ACTIVE=  0.000000000000000    
_CHANGE_BASIS=FALSE
_RESTORE_BASIS=FALSE
_FIX_EMBED_GUESS=FALSE
_EMBED_SCF=FALSE
_HUZINAGA_T=FALSE
_HUZINAGA_F=FALSE
_HUZINAGA=FALSE
_HUZINAGA_CORRECT=FALSE
!FASTLATGRAD=  1.000000000000000    
!FASTVLAMBDA= -1.000000000000000    
!IFORCE= -1.000000000000000    
!USESYM= -1.000000000000000    
_SINDEX=  0.000000000000000    
_AVDOM_OSV=  0.000000000000000    
_AVDOM_PNO=  0.000000000000000    
_AVDOM_PAO=  0.000000000000000    
_AVDOM_LMO=  0.000000000000000    
_CC2OSV_FLAG=  0.000000000000000    
_EOMCCSD_CONV=FALSE
_TMADC2_FLAG=FALSE
_PROPADC2_FLAG=FALSE
_LEN_VirQ=  0.000000000000000    
_GRDCC2LR_FLAG=FALSE
_GRDADC2_FLAG=FALSE
_DMX_CC=-0.1006671915902535E-02
_DMY_CC=-0.6400524782890216E-03
_DMZ_CC= 0.3977219175705926E-03
_DMX_NUC= 0.6220255840000966E-03
_DMY_NUC= 0.4024845899999185E-03
_DMZ_NUC=-0.2412055269997992E-03
_RO_VGLOBAL=  0.000000000000000    
_OPT=FALSE
_FREQ=FALSE
_HESS=FALSE
_CMRCC_callName=EMPTY
_CMRCC_callCount=  0.000000000000000    
_GECCO_CIROOT=  1.000000000000000    
_SYM_CATION=  0.000000000000000    
_MON_A=FALSE
_MON_B=FALSE
R1=  1.078100000000000    
R2=  1.078100000000000    
R3=  1.078100000000000    
A2=  119.9607000000000    
A3=  119.9602000000000    
D3=  184.1135000000000    
R21=  1.078100000000000    
R22=  1.078100000000000    
R23=  1.078100000000000    
A22=  119.9417000000000    
A23=  119.9727000000000    
D23=  175.9063000000000    
ANG2=  91.11760000000000    
DH3=  91.59240000000000    
DH2=  59.39100000000000    
DH1=  91.75460000000000    
ANG1=  91.13750000000000    
BB=  3.400000000000000    
GX1= 0.4147251925906703E-05
GY1=-0.4428596379237038E-03
GZ1= -3.212514000807241    
GX2= 0.4634068186506642    
GY2=  1.983051444459069    
GZ2= -3.253202628310074    
GX3=  1.486308626520482    
GY3= -1.393430711662088    
GZ3= -3.246145736892347    
GX4= -1.949076839283620    
GY4=-0.5911926085275914    
GZ4= -3.264909580441239    
GX5=-0.1092833610179672E-03
GY5= 0.3748308221839247E-03
GZ5=  3.212554769887156    
GX6= -1.471289331129559    
GY6=  1.409173528428568    
GZ6=  3.252086419524848    
GX7=  1.955402128518355    
GY7= 0.5711383729025412    
GZ7=  3.241732701516870    
GX8=-0.4834985610373948    
GY8= -1.977929368115082    
GZ8=  3.269953004593950    
CBSEN= -79.39234219831479    
[Atoms] Angs
C     1    6         0.0000021946       -0.0002343512       -1.6999891989
H     2    1         0.2452243278        1.0493856325       -1.7215206934
H     3    1         0.7865206535       -0.7373717776       -1.7177863472
H     4    1        -1.0314070456       -0.3128456557       -1.7277157456
C     5    6        -0.0000578303        0.0001983519        1.7000107730
H     6    1        -0.7785727847        0.7457025175        1.7209300211
H     7    1         1.0347542446        0.3022334112        1.7154510695
H     8    1        -0.2558564200       -1.0466751464        1.7303846108
[GTO]
   1 0
 s    9  1.00
  0.6665000000D+04  0.6920001793D-03
  0.1000000000D+04  0.5329001381D-02
  0.2280000000D+03  0.2707700701D-01
  0.6471000000D+02  0.1017180264D+00
  0.2106000000D+02  0.2747400712D+00
  0.7495000000D+01  0.4485641162D+00
  0.2797000000D+01  0.2850740738D+00
  0.5215000000D+00  0.1520400394D-01
  0.1596000000D+00 -0.3191000827D-02
 s    9  1.00
  0.6665000000D+04 -0.1460000642D-03
  0.1000000000D+04 -0.1154000508D-02
  0.2280000000D+03 -0.5725002519D-02
  0.6471000000D+02 -0.2331201026D-01
  0.2106000000D+02 -0.6395502813D-01
  0.7495000000D+01 -0.1499810660D+00
  0.2797000000D+01 -0.1272620560D+00
  0.5215000000D+00  0.5445292395D+00
  0.1596000000D+00  0.5804962554D+00
 s    9  1.00
  0.6665000000D+04  0.0000000000D+00
  0.1000000000D+04  0.0000000000D+00
  0.2280000000D+03  0.0000000000D+00
  0.6471000000D+02  0.0000000000D+00
  0.2106000000D+02  0.0000000000D+00
  0.7495000000D+01  0.0000000000D+00
  0.2797000000D+01  0.0000000000D+00
  0.5215000000D+00  0.0000000000D+00
  0.1596000000D+00  0.1000000000D+01
 p    4  1.00
  0.9439000000D+01  0.3810902127D-01
  0.2002000000D+01  0.2094801169D+00
  0.5456000000D+00  0.5085572839D+00
  0.1517000000D+00  0.4688422617D+00
 p    4  1.00
  0.9439000000D+01  0.0000000000D+00
  0.2002000000D+01  0.0000000000D+00
  0.5456000000D+00  0.0000000000D+00
  0.1517000000D+00  0.1000000000D+01
 d    1  1.00
  0.5500000000D+00  0.1000000000D+01
  
   2 0
 s    4  1.00
  0.1301000000D+02  0.1968498999D-01
  0.1962000000D+01  0.1379769298D+00
  0.4446000000D+00  0.4781477569D+00
  0.1220000000D+00  0.5012397451D+00
 s    4  1.00
  0.1301000000D+02  0.0000000000D+00
  0.1962000000D+01  0.0000000000D+00
  0.4446000000D+00  0.0000000000D+00
  0.1220000000D+00  0.1000000000D+01
 p    1  1.00
  0.7270000000D+00  0.1000000000D+01
  
   3 0
 s    4  1.00
  0.1301000000D+02  0.1968498999D-01
  0.1962000000D+01  0.1379769298D+00
  0.4446000000D+00  0.4781477569D+00
  0.1220000000D+00  0.5012397451D+00
 s    4  1.00
  0.1301000000D+02  0.0000000000D+00
  0.1962000000D+01  0.0000000000D+00
  0.4446000000D+00  0.0000000000D+00
  0.1220000000D+00  0.1000000000D+01
 p    1  1.00
  0.7270000000D+00  0.1000000000D+01
  
   4 0
 s    4  1.00
  0.1301000000D+02  0.1968498999D-01
  0.1962000000D+01  0.1379769298D+00
  0.4446000000D+00  0.4781477569D+00
  0.1220000000D+00  0.5012397451D+00
 s    4  1.00
  0.1301000000D+02  0.0000000000D+00
  0.1962000000D+01  0.0000000000D+00
  0.4446000000D+00  0.0000000000D+00
  0.1220000000D+00  0.1000000000D+01
 p    1  1.00
  0.7270000000D+00  0.1000000000D+01
  
   5 0
 s    9  1.00
  0.6665000000D+04  0.6920001793D-03
  0.1000000000D+04  0.5329001381D-02
  0.2280000000D+03  0.2707700701D-01
  0.6471000000D+02  0.1017180264D+00
  0.2106000000D+02  0.2747400712D+00
  0.7495000000D+01  0.4485641162D+00
  0.2797000000D+01  0.2850740738D+00
  0.5215000000D+00  0.1520400394D-01
  0.1596000000D+00 -0.3191000827D-02
 s    9  1.00
  0.6665000000D+04 -0.1460000642D-03
  0.1000000000D+04 -0.1154000508D-02
  0.2280000000D+03 -0.5725002519D-02
  0.6471000000D+02 -0.2331201026D-01
  0.2106000000D+02 -0.6395502813D-01
  0.7495000000D+01 -0.1499810660D+00
  0.2797000000D+01 -0.1272620560D+00
  0.5215000000D+00  0.5445292395D+00
  0.1596000000D+00  0.5804962554D+00
 s    9  1.00
  0.6665000000D+04  0.0000000000D+00
  0.1000000000D+04  0.0000000000D+00
  0.2280000000D+03  0.0000000000D+00
  0.6471000000D+02  0.0000000000D+00
  0.2106000000D+02  0.0000000000D+00
  0.7495000000D+01  0.0000000000D+00
  0.2797000000D+01  0.0000000000D+00
  0.5215000000D+00  0.0000000000D+00
  0.1596000000D+00  0.1000000000D+01
 p    4  1.00
  0.9439000000D+01  0.3810902127D-01
  0.2002000000D+01  0.2094801169D+00
  0.5456000000D+00  0.5085572839D+00
  0.1517000000D+00  0.4688422617D+00
 p    4  1.00
  0.9439000000D+01  0.0000000000D+00
  0.2002000000D+01  0.0000000000D+00
  0.5456000000D+00  0.0000000000D+00
  0.1517000000D+00  0.1000000000D+01
 d    1  1.00
  0.5500000000D+00  0.1000000000D+01
  
   6 0
 s    4  1.00
  0.1301000000D+02  0.1968498999D-01
  0.1962000000D+01  0.1379769298D+00
  0.4446000000D+00  0.4781477569D+00
  0.1220000000D+00  0.5012397451D+00
 s    4  1.00
  0.1301000000D+02  0.0000000000D+00
  0.1962000000D+01  0.0000000000D+00
  0.4446000000D+00  0.0000000000D+00
  0.1220000000D+00  0.1000000000D+01
 p    1  1.00
  0.7270000000D+00  0.1000000000D+01
  
   7 0
 s    4  1.00
  0.1301000000D+02  0.1968498999D-01
  0.1962000000D+01  0.1379769298D+00
  0.4446000000D+00  0.4781477569D+00
  0.1220000000D+00  0.5012397451D+00
 s    4  1.00
  0.1301000000D+02  0.0000000000D+00
  0.1962000000D+01  0.0000000000D+00
  0.4446000000D+00  0.0000000000D+00
  0.1220000000D+00  0.1000000000D+01
 p    1  1.00
  0.7270000000D+00  0.1000000000D+01
  
   8 0
 s    4  1.00
  0.1301000000D+02  0.1968498999D-01
  0.1962000000D+01  0.1379769298D+00
  0.4446000000D+00  0.4781477569D+00
  0.1220000000D+00  0.5012397451D+00
 s    4  1.00
  0.1301000000D+02  0.0000000000D+00
  0.1962000000D+01  0.0000000000D+00
  0.4446000000D+00  0.0000000000D+00
  0.1220000000D+00  0.1000000000D+01
 p    1  1.00
  0.7270000000D+00  0.1000000000D+01


[MO]
 Sym=      1.1
 Ene=     -11.2282
 Spin= Alpha
 Occup=    2.000000
1 0.89459159389267
2 0.007013542975087
3 -0.006931856598862
4 0.000000244817932
5 0.000000332846727
6 -0.000098933902448
7 0.000000228826588
8 -0.000000543291136
9 0.000080974087884
10 0.000329486131413
11 0.000329737363267
12 -0.000659223494680
13 0.000000035912321
14 0.000006100812805
15 -0.000000576955697
16 -0.000638478234155
17 0.001403877488139
18 0.000106811611851
19 0.000456992496701
20 -0.000029045990107
21 -0.000638878974347
22 0.001404122576093
23 0.000342425245982
24 -0.000320757854809
25 -0.000027426094720
26 -0.000638845463794
27 0.001405137527498
28 -0.000448812932884
29 -0.000135929774446
30 -0.000031655917224
31 0.44983734787665
32 0.003323301497680
33 -0.003078830576123
34 0.000000518561025
35 0.000000375752191
36 0.000140875952885
37 0.000000096722366
38 0.000001419801527
39 -0.000256978383023
40 0.000172232300577
41 0.000171808683523
42 -0.000344040984101
43 -0.000000191426065
44 -0.000002900301398
45 -0.000004270074289
46 -0.000416513031706
47 0.000721625395750
48 -0.000178383198208
49 0.000170652078550
50 0.000049166533507
51 -0.000416462128416
52 0.000720379798310
53 0.000237318494298
54 0.000069162267741
55 0.000048010171431
56 -0.000413532419791
57 0.000721047999602
58 -0.000058473487447
59 -0.000239386280465
60 0.000051230311827
 Sym=      2.1
 Ene=     -11.2282
 Spin= Alpha
 Occup=    2.000000
1 0.44998089687154
2 0.003868912344569
3 -0.004168877906940
4 -0.000000538907521
5 0.000000003250107
6 0.000103429687144
7 -0.000000450113446
8 0.000001062210009
9 -0.000322180789373
10 0.000155257605140
11 0.000155247937980
12 -0.000310505543120
13 0.000000557383053
14 0.000002572385120
15 -0.000000088334833
16 -0.000164201417993
17 0.000682595491409
18 0.000049523533607
19 0.000211941738088
20 0.000043689477901
21 -0.000160951292851
22 0.000680798811466
23 0.000158562340639
24 -0.000148639355575
25 0.000044443225292
26 -0.000164364042420
27 0.000681322301880
28 -0.000208633581061
29 -0.000063310881098
30 0.000042325656546
31 -0.89466377964489
32 -0.007287924866848
33 0.007479974515966
34 0.000000176811504
35 0.000000481959932
36 0.000024575472418
37 0.000000366217689
38 0.000000948890565
39 -0.000210707873981
40 -0.000320205120098
41 -0.000322122920981
42 0.000642328041079
43 -0.000000150159578
44 0.000004952854226
45 0.000006993699545
46 0.000510964601763
47 -0.001384032319946
48 0.000328265762170
49 -0.000314178746800
50 0.000018035159327
51 0.000509680621987
52 -0.001383789648054
53 -0.000435935189256
54 -0.000127186370496
55 0.000020381362442
56 0.000514935342910
57 -0.001385803958355
58 0.000108084076146
59 0.000441945596503
60 0.000014014958675
 Sym=      3.1
 Ene=      -0.8998
 Spin= Alpha
 Occup=    2.000000
1 -0.019784672300983
2 0.53222060458723
3 -0.10479981656533
4 0.000052560504879
5 -0.000000841385652
6 -0.005184958052552
7 -0.000013956026940
8 0.000012740360845
9 0.001879876248542
10 0.001053679110750
11 0.001056232553019
12 -0.002109911663768
13 -0.000001035860622
14 0.000019892577509
15 -0.000000708028556
16 0.24673189963695
17 -0.10151625844955
18 -0.004576606183549
19 -0.019595236511428
20 0.000245022402974
21 0.24673363360343
22 -0.10150720970603
23 -0.014682266068180
24 0.013761497285253
25 0.000175366112332
26 0.24669901871878
27 -0.10150749917281
28 0.019255166320370
29 0.005835208578591
30 0.000359217688162
31 -0.019778091412439
32 0.53204555475315
33 -0.10476597769341
34 0.000063947546826
35 0.000074447532574
36 0.005149815127981
37 -0.000021529934576
38 -0.000035875427298
39 -0.001871949019148
40 0.001056757383688
41 0.001052168444674
42 -0.002108925828362
43 0.000000113166144
44 -0.000017435763341
45 -0.000023663889516
46 0.24663748490810
47 -0.10147233034019
48 0.014531250873203
49 -0.013910023574622
50 -0.000233867374010
51 0.24667321012114
52 -0.10147678668920
53 -0.019311937102604
54 -0.005634631661624
55 -0.000132708109406
56 0.24660845105714
57 -0.10148007971980
58 0.004775422609939
59 0.019537416585543
60 -0.000409251038165
 Sym=      4.1
 Ene=      -0.8924
 Spin= Alpha
 Occup=    2.000000
1 -0.019669290850250
2 0.53687357266667
3 -0.10416357846510
4 0.000020161041859
5 -0.000004721287047
6 -0.011902480314165
7 0.000008534243816
8 0.000003521734843
9 0.000178963355160
10 0.001502704123068
11 0.001500257858574
12 -0.003002961981642
13 0.000000558465801
14 0.000024647452330
15 -0.000000678854803
16 0.24961869571632
17 -0.10399476457409
18 -0.004570784321783
19 -0.019566294095467
20 0.000050142884939
21 0.24958357531225
22 -0.10398764745184
23 -0.014658606547307
24 0.013739145861578
25 -0.000022485648512
26 0.24965298617839
27 -0.10399579315232
28 0.019230267910700
29 0.005828424470840
30 0.000166839438325
31 0.019675931875290
32 -0.53704893734706
33 0.10419676011140
34 -0.000035092340168
35 -0.000040922835684
36 -0.011867571098500
37 0.000003088353482
38 0.000001710140066
39 0.000174402133999
40 -0.001500775752076
41 -0.001502767583440
42 0.003003543335516
43 0.000000477627474
44 0.000021594825322
45 0.000029194883270
46 -0.24968353508317
47 0.10402255788182
48 -0.014517842939745
49 0.013899112346281
50 0.000037729405534
51 -0.24966039537387
52 0.10402007692641
53 0.019291744680143
54 0.005629963405916
55 -0.000065927811918
56 -0.24975093283586
57 0.10403391495456
58 -0.004772668434314
59 -0.019527295494853
60 0.000219210968258
 Sym=      5.1
 Ene=      -0.5697
 Spin= Alpha
 Occup=    2.000000
1 0.000002651600703
2 -0.000121547071358
3 0.000002088817688
4 -0.002413209784963
5 0.44960156331630
6 -0.000168767684747
7 0.000449265857747
8 -0.085874419900973
9 0.000046287481672
10 -0.011121245985236
11 0.011117477683019
12 0.000003768302217
13 0.010679641145321
14 -0.000068127300097
15 -0.001060393068623
16 0.43564907695932
17 -0.12216835426231
18 -0.005537963990635
19 -0.014496332090001
20 0.000446270386948
21 -0.30816876952796
22 0.086460120240529
23 0.012407912505393
24 -0.002673779704826
25 -0.000259719303394
26 -0.12767471462228
27 0.035822182298054
28 -0.006817227572798
29 0.006948675611001
30 -0.000173637449250
31 0.000003752433693
32 0.000003665647852
33 -0.000027017491924
34 -0.003538817692119
35 0.45203472133700
36 -0.002932004932905
37 0.000677216424874
38 -0.086317631644960
39 0.000581447544935
40 0.010863155764458
41 -0.010847799916133
42 -0.000015355848324
43 -0.011155264640976
44 0.000006824707745
45 0.001248840010590
46 0.31396929516741
47 -0.088086605158804
48 0.012490797345725
49 -0.002979488905217
50 -0.000369151281910
51 0.12275925111627
52 -0.034448268336442
53 -0.006598429072198
54 0.007144318859044
55 -0.000146317800820
56 -0.43668684354081
57 0.12251526319534
58 -0.005811428117730
59 -0.014444392982186
60 0.000586419188271
 Sym=      6.1
 Ene=      -0.5697
 Spin= Alpha
 Occup=    2.000000
1 0.000004936559225
2 -0.000073852916762
3 -0.000018758999402
4 0.45218924107264
5 0.002918708791565
6 0.002419228221209
7 -0.086321054765653
8 -0.000547781673194
9 -0.000469895425014
10 -0.009303109994589
11 0.009312572732382
12 -0.000009462737794
13 -0.012904255573269
14 -0.001170279378138
15 -0.000081173794156
16 0.10524904994340
17 -0.029527123263016
18 0.007726191759812
19 -0.005616256031577
20 0.000157019728873
21 0.32671237132926
22 -0.091634131271816
23 -0.004150541804120
24 0.012433585314048
25 0.000320292698186
26 -0.43208173932866
27 0.12123533754170
28 -0.013849616721896
29 -0.006883377640506
30 -0.000529028078253
31 0.000005438283014
32 -0.000115906550061
33 -0.000020819765608
34 0.44944057905663
35 0.003025801511808
36 -0.002117387373847
37 -0.085818714052403
38 -0.000597407366593
39 0.000408539612317
40 0.009608041440324
41 -0.009600716097306
42 -0.000007325343018
43 0.012489716642441
44 0.000971983503480
45 0.000023292907978
46 -0.32149357489876
47 0.090193338098351
48 -0.003864069513720
49 0.012377083964393
50 0.000276230389398
51 0.43071244497740
52 -0.12077798568369
53 -0.013903712538859
54 -0.006624533132204
55 -0.000351603818110
56 -0.10935282829580
57 0.030667181528853
58 0.007558935025158
59 -0.005823223945807
60 0.000118909075219
 Sym=      7.1
 Ene=      -0.5654
 Spin= Alpha
 Occup=    2.000000
1 -0.000004608987957
2 0.000118538829137
3 0.000001453850269
4 0.082239256672840
5 0.44806433933339
6 0.000187629116043
7 -0.015640907789776
8 -0.085195653897226
9 -0.000039333952761
10 -0.012875396537706
11 0.012881504514036
12 -0.000006107976330
13 0.008259909546277
14 -0.000373944386544
15 -0.001543331493153
16 0.45382608349746
17 -0.12887922243731
18 -0.004041871364618
19 -0.015402840333051
20 0.000072730643031
21 -0.24564247005609
22 0.069739716120284
23 0.011469144733732
24 -0.000360843616648
25 0.000012564309207
26 -0.20800035119793
27 0.059055789588435
28 -0.009302088254890
29 0.005553414028418
30 -0.000095569436632
31 0.000002291996158
32 -0.000023007647792
33 -0.000022478543114
34 -0.082619745673769
35 -0.44586880338580
36 0.003293850491338
37 0.015717139556427
38 0.084807523774780
39 -0.000642158045096
40 -0.012607395014241
41 0.012589510200382
42 0.000017884813859
43 0.008639341325569
44 -0.000279995559089
45 -0.001707412343896
46 -0.24791739652527
47 0.070429164936239
48 -0.011469169939970
49 0.000595052064307
50 0.000093232545428
51 -0.20362608856603
52 0.057821927214447
53 0.009101055435232
54 -0.005687248126283
55 0.000031807258324
56 0.45150306664900
57 -0.12819221980553
58 0.004250254928267
59 0.015258917328841
60 -0.000209495193993
 Sym=      8.1
 Ene=      -0.5653
 Spin= Alpha
 Occup=    2.000000
1 0.000003799766956
2 -0.000082599765377
3 -0.000018585743991
4 -0.44563490216621
5 0.083227422675866
6 -0.002374695407483
7 0.084730469756924
8 -0.015798955322220
9 0.000464095781574
10 0.007061573810340
11 -0.007075764321269
12 0.000014190510929
13 0.014826378718534
14 0.001612334652036
15 -0.000210191855313
16 -0.020285804526752
17 0.005755827549079
18 -0.008563487377717
19 0.002732260491328
20 -0.000048971394273
21 -0.38103053438339
22 0.10823217290156
23 0.006449635062209
24 -0.012663001498632
25 -0.000028413353464
26 0.40121794111159
27 -0.11391567477955
28 0.012264529530559
29 0.008037257293824
30 0.000140425562968
31 -0.000003863982804
32 0.000079621435322
33 0.000008007041208
34 0.44834121989475
35 -0.081667002473969
36 -0.001491476600435
37 -0.085207076966043
38 0.015540012844491
39 0.000292604706338
40 0.007580571702979
41 -0.007569861249855
42 -0.000010710453124
43 0.014607871600486
44 0.001440120290788
45 -0.000298511821544
46 -0.37925723701381
47 0.10768554833560
48 -0.006171251726601
49 0.012786764105624
50 0.000015501003821
51 0.40643154949280
52 -0.11543664896966
53 -0.012554795142752
54 -0.007869089792819
55 0.000037747104469
56 -0.027024362468922
57 0.007665213957338
58 0.008520333996685
59 -0.003055445910658
60 -0.000011275744962
 Sym=      9.1
 Ene=      -0.1518
 Spin= Alpha
 Occup=    1.298454
1 0.001246948612041
2 0.001266570758418
3 -0.009381586975047
4 -0.003319095559668
5 0.000325433395958
6 0.59937746967249
7 -0.000440482028809
8 0.000068473415075
9 0.077691943575450
10 -0.001831082915681
11 -0.001836506088533
12 0.003667589004214
13 0.000010949296248
14 -0.000028474928293
15 0.000001136703720
16 -0.015723570423324
17 0.012446716455716
18 -0.000047949257005
19 0.000116780492949
20 0.014426757561152
21 -0.015828700297031
22 0.012583891000682
23 0.000006113955882
24 -0.000069095354890
25 0.014439953807883
26 -0.015666615130363
27 0.012514101395314
28 -0.000177935614325
29 -0.000025831522559
30 0.014414880880581
31 0.001246751506632
32 0.001181499826344
33 -0.009417219878263
34 -0.002872303996735
35 -0.004140604622971
36 -0.59936507862363
37 -0.000377025092813
38 -0.000572958303401
39 -0.077693553829401
40 -0.001846389685435
41 -0.001816675803923
42 0.003663065489358
43 0.000004721879492
44 0.000023593052111
45 0.000032842969989
46 -0.015753279651468
47 0.012575451952287
48 -0.000141775580127
49 -0.000016366822652
50 -0.014432513059694
51 -0.015813554707269
52 0.012545929256468
53 0.000042276873879
54 -0.000059746980320
55 -0.014443017177632
56 -0.015565711131091
57 0.012421043268086
58 -0.000090470274987
59 -0.000198276806790
60 -0.014406309522988
 Sym=     10.1
 Ene=      -0.0438
 Spin= Alpha
 Occup=    0.701546
1 -0.001197823389053
2 0.035522346371475
3 0.022743800769438
4 -0.003440295814576
5 0.000258756237161
6 0.67224891369184
7 -0.000304851838521
8 0.000019240008370
9 0.063362027705483
10 0.000543016818880
11 0.000549266905434
12 -0.001092283724314
13 -0.000012119200202
14 0.000009039686764
15 0.000003449339579
16 0.004448846936744
17 -0.011644424606066
18 0.000008774299565
19 0.000365324424743
20 0.013594536562998