
 Working directory              : /scratch/cc//molpro.SNqQyo7B5L/
 Global scratch directory       : /scratch/cc//molpro.SNqQyo7B5L/
 Wavefunction directory         : /home/chimica2/cavallotti/wfu/
 Main file repository           : /scratch/cc//molpro.SNqQyo7B5L/

 id        : polimi

 Nodes     nprocs
 node-6-10    1
 Distribution of processes:   nprocs(total)=    2   nprocs(compute)=    1   nprocs(helper)=    1
 GA implementation: MPI file
 GA implementation (serial work in mppx): MPI file

 Using customized tuning parameters: mindgm=1; mindgv=20; mindgc=4; mindgr=1; noblas=0; minvec=7
 default implementation of scratch files=df  


 Variables initialized (1009), CPU time= 0.00 sec
  memory,         400 ,m
 
 symmetry, nosym; orient, noorient
 angstrom
 geomtyp=xyz
 geometry={
 5
 rotational dynamics
 C, -0.126671, 0.0112381, 0.0843367
 H, 0.247603, 0.503674, -0.798806
 H, -0.581391, -0.963233, 0.00588772
 H, -0.0435228, 0.491625, 1.04602
 H, 1.88556, -0.165877, -1.25728
 }
 
  basis=cc-pvdz
  {multi;closed, 4;occ, 6;wf, 10,1,0,;state,1;maxiter,40}
  if (iterations.ge.0) then
     {rs2,shift=0.2;orbital,IGNORE_ERROR;state,1}
     molpro_energy = energy +   40.192865169999997
  else
     molpro_energy = 10.0
  endif
 Commands initialized (810), CPU time= 0.01 sec, 661 directives.
 Default parameters read. Elapsed time= 0.16 sec

 Checking input...
 Passed
1


                                         ***  PROGRAM SYSTEM MOLPRO  ***
                                       Copyright, TTI GmbH Stuttgart, 2015
                                    Version 2021.2 linked Jun  2 2021 16:00:59


 **********************************************************************************************************************************
 LABEL *                                                                                 
  64 bit serial version                                                                  DATE: 03-Jun-23          TIME: 09:12:07  
 **********************************************************************************************************************************

 SHA1:             1987c3f1b0c3ae76932bc24993909f2d7ae6b1f1
 **********************************************************************************************************************************

 Memory per process:       400 MW
 Total memory per node:    400 MW

 GA preallocation disabled
 GA check disabled

 Variable memory set to 400.0 MW

 SETTING GEOMTYP        =    XYZ
 ZSYMEL=NOSYM
 ZUNIT=ANG

 SETTING BASIS          =    CC-PVDZ


 Recomputing integrals since basis changed


 Using spherical harmonics

 Library entry C      S cc-pVDZ              selected for orbital group  1
 Library entry C      P cc-pVDZ              selected for orbital group  1
 Library entry C      D cc-pVDZ              selected for orbital group  1
 Library entry H      S cc-pVDZ              selected for orbital group  2
 Library entry H      P cc-pVDZ              selected for orbital group  2


 PROGRAM * SEWARD (Integral evaluation for generally contracted gaussian basis sets)     Author: Roland Lindh, 1990

 Geometry written to block  1 of record 700


 Point group  C1  



 ATOMIC COORDINATES

 NR  ATOM    CHARGE       X              Y              Z

   1  C       6.00   -0.239373498    0.021236931    0.159373265
   2  H       1.00    0.467901858    0.951805916   -1.509524567
   3  H       1.00   -1.098669761   -1.820246564    0.011126178
   4  H       1.00   -0.082246172    0.929036606    1.976691321
   5  H       1.00    3.563191992   -0.313462100   -2.375914862

 Bond lengths in Bohr (Angstrom)

 1-2  2.037502647  1-3  2.037505517  1-4  2.037506849
     ( 1.078199968)     ( 1.078201487)     ( 1.078202192)

 Bond angles

  2-1-3  119.97236684   2-1-4  120.02076522   3-1-4  120.00658882

 NUCLEAR CHARGE:                   10
 NUMBER OF PRIMITIVE AOS:          55
 NUMBER OF SYMMETRY AOS:           54
 NUMBER OF CONTRACTIONS:           34   (   34A   )
 NUMBER OF INNER CORE ORBITALS:     0   (    0A   )
 NUMBER OF OUTER CORE ORBITALS:     1   (    1A   )
 NUMBER OF VALENCE ORBITALS:        8   (    8A   )


 NUCLEAR REPULSION ENERGY   11.63879342

 Eigenvalues of metric

         1 0.148E-01 0.331E-01 0.352E-01 0.420E-01 0.511E-01 0.538E-01 0.785E-01 0.115E+00


 Contracted 2-electron integrals neglected if value below      1.0D-11
 AO integral compression algorithm  1   Integral accuracy      1.0D-11

     1.311 MB (compressed) written to integral file ( 60.3%)


 NUMBER OF SORTED TWO-ELECTRON INTEGRALS:     177310.     BUFFER LENGTH:  32768
 NUMBER OF SEGMENTS:   1  SEGMENT LENGTH:     177310      RECORD LENGTH: 524288

 Memory used in sort:       0.73 MW

 SORT1 READ      219389. AND WROTE      172168. INTEGRALS IN      1 RECORDS. CPU TIME:     0.01 SEC, REAL TIME:     0.01 SEC
 SORT2 READ      172168. AND WROTE      177310. INTEGRALS IN      5 RECORDS. CPU TIME:     0.02 SEC, REAL TIME:     0.03 SEC

 FILE SIZES:   FILE 1:    31.4 MBYTE,  FILE 4:     4.2 MBYTE,   TOTAL:     35.6 MBYTE

 OPERATOR DM      FOR CENTER  0  COORDINATES:    0.000000    0.000000    0.000000


 **********************************************************************************************************************************
 DATASETS  * FILE   NREC   LENGTH (MB)   RECORD NAMES
              1      19       29.47       500      610      700      900      950      970     1000      129      960     1100   
                                          VAR    BASINP    GEOM    SYMINP    ZMAT    AOBASIS   BASIS     P2S    ABASIS      S 
                                         1400     1410     1200     1210     1080     1600     1650     1300     1700   
                                           T        V       H0       H01     AOSYM     SMH    MOLCAS    ERIS     OPER   

 PROGRAMS   *        TOTAL       INT
 CPU TIMES  *         0.40      0.24
 REAL TIME  *         0.92 SEC
 DISK USED  *        34.26 MB
 **********************************************************************************************************************************

 PROGRAM * MULTI (Direct Multiconfiguration SCF)       Authors: P.J. Knowles, H.-J. Werner (1984)
                                                                D.A. Kreplin, P.J. Knowles, H.-J. Werner (2019)

 Number of closed-shell orbitals:   4 (   4 )
 Number of active  orbitals:        2 (   2 )
 Number of external orbitals:      28 (  28 )

 State symmetry 1

 Number of active electrons:   2    Spin symmetry=Singlet   Space symmetry=1
 Number of states:             1
 Number of CSFs:               3   (4 determinants, 4 intermediate states)

 Orbital guess generated from atomic densities. Full valence occupancy:    9

 Wavefunction dump at record             2140.2

 Convergence thresholds  0.10E-04 (gradient)  0.10E-05 (energy)
 
 Number of orbital rotations:  176  ( 8 closed/active, 112 closed/virtual, 0 active/active, 56 active/virtual )
 Total number of variables:    180
 
  Second-order MCSCF: L-BFGS accelerated
 
 ITER  MIC  NCI  NEG     ENERGY(VAR)    ENERGY(PROJ) ENERGY CHANGE       GRAD(0)  GRAD(ORB)   GRAD(CI)      STEP      TIME
   1    6    5    0    -40.04088467     -40.06268368   -0.02179901    0.14893033 0.00051631 0.00000000  0.17E+00      0.10
   2    9    8    0    -40.06256813     -40.06257734   -0.00000920    0.00357315 0.00000011 0.00000000  0.33E-02      0.22
   3    5    5    0    -40.06257734     -40.06257734   -0.00000000    0.00000272 0.00000000 0.00000000  0.41E-05      0.31

 CONVERGENCE REACHED!  Final gradient:    0.00000000 ( 0.10E-09)
                       Final energy:    -40.06257734
 
 First order charge density matrix for state 1.1 saved on record 2140.2 (density set 1)
 
 Results for state 1.1
 =====================
 !MCSCF STATE 1.1 Energy                       -40.062577344092
 Nuclear energy                                 11.63879342
 Kinetic energy                                 39.96807052
 One electron energy                           -75.92620532
 Two electron energy                            24.22483455
 Virial ratio                                    2.00236456
 
 !MCSCF STATE 1.1 Dipole moment                 -0.15206249     0.03152090     0.07092429
 Dipole moment /Debye                           -0.38650430     0.08011813     0.18027157
 
 No non-zero expectation values
 
 
 Natural orbital dump at molpro section 2140.2 (Orbital set 2)


 **********************************************************************************************************************************
 DATASETS  * FILE   NREC   LENGTH (MB)   RECORD NAMES
              1      20       29.77       500      610      700      900      950      970     1000      129      960     1100   
                                          VAR    BASINP    GEOM    SYMINP    ZMAT    AOBASIS   BASIS     P2S    ABASIS      S 
                                         1400     1410     1200     1210     1080     1600     1650     1300     1700     1380   
                                           T        V       H0       H01     AOSYM     SMH    MOLCAS    ERIS     OPER     JKOP   

              2       4        2.72       700     1000      520     2140   
                                         GEOM     BASIS   MCVARS    MCSCF   

 PROGRAMS   *        TOTAL     MULTI       INT
 CPU TIMES  *         0.66      0.26      0.24
 REAL TIME  *         1.36 SEC
 DISK USED  *        34.26 MB
 **********************************************************************************************************************************


 PROGRAM * RS2 (Multireference RS Perturbation Theory)     Authors: H.-J. Werner (1993), P. Celani (1998)


 Level shift= 0.20

 Convergence thresholds:  THRVAR = 1.00D-08  THRDEN = 1.00D-06

 Number of optimized states: 1  Roots:    1
 Number of reference states: 1  Roots:    1

 Reference symmetry:                   1   Singlet 
 Number of electrons:                 10
 Maximum number of shells:             4
 Maximum number of spin couplings:     5

 Reference space:        3 conf        3 CSFs
 N elec internal:       15 conf       15 CSFs
 N-1 el internal:       23 conf       32 CSFs
 N-2 el internal:       25 conf       52 CSFs

 Number of electrons in valence space:                      8
 Maximum number of open shell orbitals in reference space:  2
 Maximum number of open shell orbitals in internal spaces:  6


 Number of core orbitals:           1 (   1 )
 Number of closed-shell orbitals:   3 (   3 )
 Number of active  orbitals:        2 (   2 )
 Number of external orbitals:      28 (  28 )

 Molecular orbitals read from record     2140.2  Type=MCSCF/NATURAL (state 1.1)

 Integral transformation finished. Total CPU:   0.01 sec, npass=  1  Memory used:   0.11 MW


 Number of p-space configurations:   3

 Reference wavefunction optimized for reference space (refopt=1)

 State     Reference Energy 
     1       -40.06257734

 Number of blocks in overlap matrix:     2   Smallest eigenvalue:  0.10D+01
 Number of N-2 electron functions:      22
 Number of N-1 electron functions:      32

 Number of internal configurations:                   15
 Number of singly external configurations:           896
 Number of doubly external configurations:          8680
 Total number of contracted configurations:         9591
 Total number of uncontracted configurations:      21351

 Weight factors for SA-density in H0:    1.000000

 FIMAX=  0.28D-01  FXMAX=  0.69D-13  DIAG=  F  T  NOREF=1  NOINT=0  IHPPD=2

 Nuclear energy:                      11.63879342
 Core energy:                        -35.73980769
 Zeroth-order valence energy:         -4.49686106
 Zeroth-order total energy:          -28.59787533
 First-order energy:                 -11.46470202

 Using uncontracted singles

 Diagonal Coupling coefficients finished.               Storage:     883 words, CPU-Time:      0.00 seconds.
 Energy denominators for pairs finished in 0 passes.    Storage:    2295 words, CPU-time:      0.00 seconds.

 A level shift of 0.20 is applied.

  ITER. STATE  ROOT     SQ.NORM     CORR.ENERGY   TOTAL ENERGY   ENERGY CHANGE       DEN1      VAR(S)    VAR(P)      TIME
    1     1     1     1.00701393    -0.00140279   -40.06398013    -0.00140279    -0.12807990  0.70D-02  0.35D-01     0.02
    2     1     1     1.04270360    -0.13678571   -40.19936305    -0.13538292    -0.00003509  0.24D-04  0.16D-04     0.03
    3     1     1     1.04273972    -0.13686289   -40.19944024    -0.00007718    -0.00004726  0.24D-06  0.51D-07     0.03
    4     1     1     1.04275963    -0.13686732   -40.19944466    -0.00000442    -0.00000106  0.19D-08  0.10D-08     0.03
    5     1     1     1.04276025    -0.13686744   -40.19944479    -0.00000013    -0.00000033  0.34D-10  0.74D-11     0.03
    6     1     1     1.04276038    -0.13686747   -40.19944481    -0.00000003    -0.00000002  0.44D-12  0.16D-12     0.04

 Energies without level shift correction:

    6     1     1     1.04276038    -0.12831539   -40.19089274

 Energy contributions for state 1.1:
 ===================================

            Energy contr.      SQ.Norm of FOWF
 Space I     -0.00021977          0.00013623
 Space S     -0.01453762          0.00714833
 Space P     -0.11355801          0.03547582


 =====================================
 Analysis of CPU times by interactions
 =====================================

       I      S      P

 I   0.0%
 S   0.0%   0.0%
 P   0.0%   0.0%  25.0%

 Initialization:  50.0%
 Other:           25.0%

 Total CPU:        0.0 seconds
 =====================================



 gnormi=  1.00013623  gnorms=  0.00714833  gnormp=  0.03547582  gnorm=  1.04276038
 ecorri= -0.00021977  ecorrs= -0.01453762  ecorrp= -0.11355801  ecorr= -0.13686747

 Reference coefficients greater than 0.0500000
 =============================================
 22220           0.8545367
 22202          -0.5193910


 RESULTS FOR STATE 1.1
 =====================

 Coefficient of reference function:   C(0) = 1.00000000 (fixed)   1.00000000 (relaxed)

 Energy contributions of configuration classes

 CLASS          SQ.NORM        ECORR1        ECORR2
 +++++++++++++++++++++++++++++++++++++++++++++++++++
 Internals    0.00013623   -0.00021977    0.13639864
 Singles      0.00714833   -0.01453762   -0.03101307
 Pairs        0.03547582   -0.11355800   -0.24225303
 Total        1.04276038   -0.12831539   -0.13686747
 +++++++++++++++++++++++++++++++++++++++++++++++++++


 Reference energy                     -40.06257734
 Nuclear energy                        11.63879342
 Kinetic energy                        40.06570620
 One electron energy                  -75.86752613
 Two electron energy                   24.02928790
 Virial quotient                       -1.00333798
 Correlation energy                    -0.13686747
 !RSPT2 STATE 1.1 Energy              -40.199444812169

 Properties without orbital relaxation:

 !RSPT2 STATE 1.1 Dipole moment        -0.15519962     0.03245172     0.07157575
 Dipole moment /Debye                  -0.39447810     0.08248405     0.18192741


 **********************************************************************************************************************************
 DATASETS  * FILE   NREC   LENGTH (MB)   RECORD NAMES
              1      20       29.77       500      610      700      900      950      970     1000      129      960     1100   
                                          VAR    BASINP    GEOM    SYMINP    ZMAT    AOBASIS   BASIS     P2S    ABASIS      S 
                                         1400     1410     1200     1210     1080     1600     1650     1300     1700     1380   
                                           T        V       H0       H01     AOSYM     SMH    MOLCAS    ERIS     OPER     JKOP   

              2       4        2.72       700     1000      520     2140   
                                         GEOM     BASIS   MCVARS    MCSCF   

 PROGRAMS   *        TOTAL       RS2     MULTI       INT
 CPU TIMES  *         0.75      0.08      0.26      0.24
 REAL TIME  *         1.54 SEC
 DISK USED  *        34.26 MB
 **********************************************************************************************************************************
 SETTING MOLPRO_ENERGY  =        -0.00657964  AU                              

 RS2/cc-pVDZ energy=    -40.199444812169

             RS2           MULTI
    -40.19944481    -40.06257734
 **********************************************************************************************************************************
 Molpro calculation terminated
