 Entering Gaussian System, Link 0=g09
 Input=geom.com
 Output=geom.log
 Initial command:
 /software/cinetica/g09d1/g09d01/d01/build-node-6-2-59348/src/main/l1.exe "/scratch/cc/140690/Gau-142351.inp" -scrdir="/scratch/cc/140690/"
 Entering Link 1 = /software/cinetica/g09d1/g09d01/d01/build-node-6-2-59348/src/main/l1.exe PID=    142352.
  
 Copyright (c) 1988,1990,1992,1993,1995,1998,2003,2009,2013,
            Gaussian, Inc.  All Rights Reserved.
  
 This is part of the Gaussian(R) 09 program.  It is based on
 the Gaussian(R) 03 system (copyright 2003, Gaussian, Inc.),
 the Gaussian(R) 98 system (copyright 1998, Gaussian, Inc.),
 the Gaussian(R) 94 system (copyright 1995, Gaussian, Inc.),
 the Gaussian 92(TM) system (copyright 1992, Gaussian, Inc.),
 the Gaussian 90(TM) system (copyright 1990, Gaussian, Inc.),
 the Gaussian 88(TM) system (copyright 1988, Gaussian, Inc.),
 the Gaussian 86(TM) system (copyright 1986, Carnegie Mellon
 University), and the Gaussian 82(TM) system (copyright 1983,
 Carnegie Mellon University). Gaussian is a federally registered
 trademark of Gaussian, Inc.
  
 This software contains proprietary and confidential information,
 including trade secrets, belonging to Gaussian, Inc.
  
 This software is provided under written license and may be
 used, copied, transmitted, or stored only in accord with that
 written license.
  
 The following legend is applicable only to US Government
 contracts under FAR:
  
                    RESTRICTED RIGHTS LEGEND
  
 Use, reproduction and disclosure by the US Government is
 subject to restrictions as set forth in subparagraphs (a)
 and (c) of the Commercial Computer Software - Restricted
 Rights clause in FAR 52.227-19.
  
 Gaussian, Inc.
 340 Quinnipiac St., Bldg. 40, Wallingford CT 06492
  
  
 ---------------------------------------------------------------
 Warning -- This program may not be used in any manner that
 competes with the business of Gaussian, Inc. or will provide
 assistance to any competitor of Gaussian, Inc.  The licensee
 of this program is prohibited from giving any competitor of
 Gaussian, Inc. access to this program.  By using this program,
 the user acknowledges that Gaussian, Inc. is engaged in the
 business of creating and licensing software in the field of
 computational chemistry and represents and warrants to the
 licensee that it is not a competitor of Gaussian, Inc. and that
 it will not use this program in any manner prohibited above.
 ---------------------------------------------------------------
  

 Cite this work as:
 Gaussian 09, Revision D.01,
 M. J. Frisch, G. W. Trucks, H. B. Schlegel, G. E. Scuseria, 
 M. A. Robb, J. R. Cheeseman, G. Scalmani, V. Barone, B. Mennucci, 
 G. A. Petersson, H. Nakatsuji, M. Caricato, X. Li, H. P. Hratchian, 
 A. F. Izmaylov, J. Bloino, G. Zheng, J. L. Sonnenberg, M. Hada, 
 M. Ehara, K. Toyota, R. Fukuda, J. Hasegawa, M. Ishida, T. Nakajima, 
 Y. Honda, O. Kitao, H. Nakai, T. Vreven, J. A. Montgomery, Jr., 
 J. E. Peralta, F. Ogliaro, M. Bearpark, J. J. Heyd, E. Brothers, 
 K. N. Kudin, V. N. Staroverov, T. Keith, R. Kobayashi, J. Normand, 
 K. Raghavachari, A. Rendell, J. C. Burant, S. S. Iyengar, J. Tomasi, 
 M. Cossi, N. Rega, J. M. Millam, M. Klene, J. E. Knox, J. B. Cross, 
 V. Bakken, C. Adamo, J. Jaramillo, R. Gomperts, R. E. Stratmann, 
 O. Yazyev, A. J. Austin, R. Cammi, C. Pomelli, J. W. Ochterski, 
 R. L. Martin, K. Morokuma, V. G. Zakrzewski, G. A. Voth, 
 P. Salvador, J. J. Dannenberg, S. Dapprich, A. D. Daniels, 
 O. Farkas, J. B. Foresman, J. V. Ortiz, J. Cioslowski, 
 and D. J. Fox, Gaussian, Inc., Wallingford CT, 2013.
 
 ******************************************
 Gaussian 09:  EM64L-G09RevD.01 24-Apr-2013
                 3-Jun-2023 
 ******************************************
 %mem=400MW
 %chk=tmp
 %NProcShared= 32
 Will use up to   32 processors via shared memory.
 ----------------------------------------------------------------------
 # uwb97xd/aug-cc-pvtz opt=(noeig,intern,maxcyc=50) # int=ultrafine nos
 ym freq iop(7/33=1) guess=(mix,always)
 ----------------------------------------------------------------------
 1/6=50,10=7,11=1,14=-1,18=40,26=4,38=1/1,3;
 2/12=2,15=1,17=6,18=5,29=3,40=1/2;
 3/5=16,6=1,7=10,11=2,16=1,25=1,30=1,71=1,74=-58,75=-5,116=2/1,2,3;
 4/13=-1/1;
 5/5=2,38=5/2;
 6/7=2,8=2,9=2,10=2,28=1/1;
 7/29=1,30=1,33=1/1,2,3,16;
 1/6=50,10=7,11=1,14=-1,18=40,26=4/3(2);
 2/15=1,29=3/2;
 99//99;
 2/15=1,29=3/2;
 3/5=16,6=1,7=10,11=2,16=1,25=1,30=1,71=1,74=-58,75=-5,116=2/1,2,3;
 4/13=-1/1;
 5/5=2,38=5/2;
 7/30=1,33=1/1,2,3,16;
 1/6=50,11=1,14=-1,18=40,26=4/3(-5);
 2/15=1,29=3/2;
 6/7=2,8=2,9=2,10=2,19=2,28=1/1;
 99/9=1/99;
 ------
 geom 0
 ------
 Symbolic Z-matrix:
 Charge =  0 Multiplicity = 1
 C1
 H2                   C1   R1
 H3                   C1   R2       H2   A2
 H4                   C1   R3       H2   A3       H3   D3       0
 H21                  C1   BB       H2   ANG1     H3   DH1      0
       Variables:
  R1                    1.0791                   
  R2                    1.0791                   
  R3                    1.0791                   
  A2                  117.1143                   
  A3                  117.1221                   
  D3                  213.1119                   
  DH1                 106.5501                   
  ANG1                 99.8829                   
       Constants:
  BB                    3.6                      
 

 GradGradGradGradGradGradGradGradGradGradGradGradGradGradGradGradGradGrad
 Berny optimization.
 Initialization pass.
                       ----------------------------
                       !    Initial Parameters    !
                       ! (Angstroms and Degrees)  !
 ----------------------                            ----------------------
 !      Name          Value   Derivative information (Atomic Units)     !
 ------------------------------------------------------------------------
 !       R1          1.0791   estimate D2E/DX2                          !
 !       R2          1.0791   estimate D2E/DX2                          !
 !       R3          1.0791   estimate D2E/DX2                          !
 !       A2        117.1143   estimate D2E/DX2                          !
 !       A3        117.1221   estimate D2E/DX2                          !
 !       D3        213.1119   estimate D2E/DX2                          !
 !       DH1       106.5501   estimate D2E/DX2                          !
 !      ANG1        99.8829   estimate D2E/DX2                          !
 !       BB          3.6      Frozen                                    !
 ------------------------------------------------------------------------
 Trust Radius=3.00D-01 FncErr=1.00D-07 GrdErr=1.00D-06
 Number of steps in this run=     50 maximum allowed number of steps=    100.
 GradGradGradGradGradGradGradGradGradGradGradGradGradGradGradGradGradGrad

 ---------------------------------------------------------------------------------------------------
                            Z-MATRIX (ANGSTROMS AND DEGREES)
   CD    Cent   Atom    N1       Length/X        N2       Alpha/Y        N3        Beta/Z          J
 ---------------------------------------------------------------------------------------------------
      1      1  C 
      2      2  H        1   1.079100(     1)
      3      3  H        1   1.079100(     2)      2  117.114(     5)
      4      4  H        1   1.079100(     3)      2  117.122(     6)      3  213.112(     8)      0
      5      5  H        1   3.600000(     4)      2   99.883(     7)      3  106.550(     9)      0
 ---------------------------------------------------------------------------------------------------
                         Z-Matrix orientation:                         
 ---------------------------------------------------------------------
 Center     Atomic      Atomic             Coordinates (Angstroms)
 Number     Number       Type             X           Y           Z
 ---------------------------------------------------------------------
      1          6           0        0.000000    0.000000    0.000000
      2          1           0        0.000000    0.000000    1.079100
      3          1           0        0.960506    0.000000   -0.491818
      4          1           0       -0.804469    0.524665   -0.491949
      5          1           0       -1.010256   -3.399647   -0.617886
 ---------------------------------------------------------------------
                    Distance matrix (angstroms):
                    1          2          3          4          5
     1  C    0.000000
     2  H    1.079100   0.000000
     3  H    1.079100   1.841292   0.000000
     4  H    1.079100   1.841369   1.841306   0.000000
     5  H    3.600000   3.931664   3.931589   3.931721   0.000000
 Symmetry turned off by external request.
 Stoichiometry    CH4
 Framework group  C1[X(CH4)]
 Deg. of freedom     9
 Full point group                 C1      NOp   1
 Rotational constants (GHZ):    147.9014650     35.3750480     35.3746157
 Standard basis: Aug-CC-pVTZ (5D, 7F)
   138 basis functions,   180 primitive gaussians,   155 cartesian basis functions
     5 alpha electrons        5 beta electrons
       nuclear repulsion energy        10.9748890719 Hartrees.
 NAtoms=    5 NActive=    5 NUniq=    5 SFac= 1.00D+00 NAtFMM=   60 NAOKFM=F Big=F
 Integral buffers will be    131072 words long.
 Raffenetti 2 integral format.
 Two-electron integral symmetry is turned off.
 Nuclear repulsion after empirical dispersion term =       10.9745247692 Hartrees.
 One-electron integrals computed using PRISM.
 NBasis=   138 RedAO= T EigKep=  1.11D-04  NBF=   138
 NBsUse=   138 1.00D-06 EigRej= -1.00D+00 NBFU=   138
 ExpMin= 2.53D-02 ExpMax= 8.24D+03 ExpMxC= 2.81D+02 IAcc=3 IRadAn=         5 AccDes= 0.00D+00
 Harris functional with IExCor= 4639 and IRadAn=       5 diagonalized for initial guess.
 HarFok:  IExCor= 4639 AccDes= 0.00D+00 IRadAn=         5 IDoV= 1 UseB2=F ITyADJ=14
 ICtDFT=  3500011 ScaDFX=  1.000000  1.000000  1.000000  1.000000
 FoFCou: FMM=F IPFlag=           0 FMFlag=      100000 FMFlg1=           0
         NFxFlg=           0 DoJE=T BraDBF=F KetDBF=T FulRan=T
         wScrn=  0.000000 ICntrl=     500 IOpCl=  0 I1Cent=   200000004 NGrid=           0
         NMat0=    1 NMatS0=      1 NMatT0=    0 NMatD0=    1 NMtDS0=    0 NMtDT0=    0
 Symmetry not used in FoFCou.
 Mixing orbitals, IMix= 1 IMixAn=  0 NRI=1 NE=    5 Coef=  7.07106781D-01  7.07106781D-01
 Mixing orbitals, IMix= 1 IMixAn=  0 NRI=1 NE=    5 Coef= -7.07106781D-01  7.07106781D-01
 Initial guess <Sx>= 0.0000 <Sy>= 0.0000 <Sz>= 0.0000 <S**2>= 1.0000 S= 0.6180
 Keep R1 and R2 ints in memory in canonical form, NReq=186088671.
 Requested convergence on RMS density matrix=1.00D-08 within 128 cycles.
 Requested convergence on MAX density matrix=1.00D-06.
 Requested convergence on             energy=1.00D-06.
 No special actions if energy rises.
 SCF Done:  E(UwB97XD) =  -40.3398508758     A.U. after   16 cycles
            NFock= 16  Conv=0.88D-08     -V/T= 2.0067
 <Sx>= 0.0000 <Sy>= 0.0000 <Sz>= 0.0000 <S**2>= 0.9972 S= 0.6168
 <L.S>=  0.00000000000    
 Annihilation of the first spin contaminant:
 S**2 before annihilation     0.9972,   after     0.0283

 **********************************************************************

            Population analysis using the SCF density.

 **********************************************************************

 Alpha  occ. eigenvalues --  -10.29712  -0.78853  -0.50566  -0.50564  -0.32411
 Alpha virt. eigenvalues --    0.03495   0.05227   0.05228   0.10383   0.12922
 Alpha virt. eigenvalues --    0.13422   0.13422   0.13593   0.20394   0.20395
 Alpha virt. eigenvalues --    0.20803   0.24115   0.24115   0.30024   0.32992
 Alpha virt. eigenvalues --    0.32992   0.33268   0.34590   0.37030   0.37052
 Alpha virt. eigenvalues --    0.37053   0.38705   0.39501   0.39501   0.46165
 Alpha virt. eigenvalues --    0.46166   0.47011   0.47011   0.51497   0.60514
 Alpha virt. eigenvalues --    0.61240   0.61240   0.66265   0.75320   0.75321
 Alpha virt. eigenvalues --    0.78346   0.80366   0.80367   0.81712   0.85111
 Alpha virt. eigenvalues --    0.91419   0.91419   0.92185   0.93717   0.95124
 Alpha virt. eigenvalues --    0.95124   1.00756   1.00757   1.03477   1.05006
 Alpha virt. eigenvalues --    1.05008   1.05125   1.08735   1.08736   1.10358
 Alpha virt. eigenvalues --    1.10359   1.13354   1.13356   1.19629   1.28663
 Alpha virt. eigenvalues --    1.34363   1.34363   1.38494   1.38496   1.48384
 Alpha virt. eigenvalues --    1.48433   1.48434   1.51064   1.51064   1.51582
 Alpha virt. eigenvalues --    1.53048   1.54860   1.72513   1.74943   1.74944
 Alpha virt. eigenvalues --    1.90075   1.90078   1.90674   2.03263   2.03265
 Alpha virt. eigenvalues --    2.08067   2.74337   2.77294   2.77294   2.92424
 Alpha virt. eigenvalues --    3.06420   3.06421   3.10987   3.32984   3.35313
 Alpha virt. eigenvalues --    3.35315   3.37753   3.38518   3.38519   3.44600
 Alpha virt. eigenvalues --    3.47563   3.47565   3.72867   3.72903   3.72903
 Alpha virt. eigenvalues --    3.74872   3.93396   3.93399   3.96597   3.96602
 Alpha virt. eigenvalues --    4.04365   4.04366   4.16664   4.17511   4.17514
 Alpha virt. eigenvalues --    4.31946   4.36939   4.36942   4.47188   4.47686
 Alpha virt. eigenvalues --    4.47687   4.56556   4.64856   4.64858   4.70138
 Alpha virt. eigenvalues --    4.84348   4.99782   4.99788   5.05530   5.05530
 Alpha virt. eigenvalues --    5.21102   5.47631   5.47636   5.86480   5.92275
 Alpha virt. eigenvalues --    6.18345   6.18352  15.94250
  Beta  occ. eigenvalues --  -10.28566  -0.74537  -0.49283  -0.49281  -0.40035
  Beta virt. eigenvalues --   -0.00721   0.04037   0.05383   0.05383   0.06412
  Beta virt. eigenvalues --    0.13136   0.13136   0.13522   0.14256   0.19620
  Beta virt. eigenvalues --    0.19621   0.20688   0.20688   0.22587   0.27362
  Beta virt. eigenvalues --    0.27362   0.30706   0.33321   0.33321   0.34570
  Beta virt. eigenvalues --    0.35303   0.37106   0.38511   0.38513   0.38666
  Beta virt. eigenvalues --    0.40968   0.40968   0.46155   0.47073   0.47073
  Beta virt. eigenvalues --    0.60254   0.60537   0.60538   0.68111   0.74500
  Beta virt. eigenvalues --    0.74500   0.75521   0.75522   0.77242   0.77243
  Beta virt. eigenvalues --    0.81711   0.82636   0.85347   0.86873   0.86874
  Beta virt. eigenvalues --    0.92243   0.93392   0.93392   0.93835   0.93835
  Beta virt. eigenvalues --    0.97940   0.99126   0.99127   1.03255   1.05961
  Beta virt. eigenvalues --    1.05963   1.07353   1.07750   1.07751   1.14561
  Beta virt. eigenvalues --    1.14563   1.15643   1.26003   1.37646   1.37649
  Beta virt. eigenvalues --    1.48447   1.48449   1.51657   1.51658   1.51699
  Beta virt. eigenvalues --    1.53659   1.54963   1.73843   1.75624   1.75625
  Beta virt. eigenvalues --    1.90545   1.91157   1.91160   2.03527   2.03530
  Beta virt. eigenvalues --    2.10035   2.40934   2.78397   2.78399   2.80350
  Beta virt. eigenvalues --    2.95314   3.09083   3.09087   3.35308   3.38025
  Beta virt. eigenvalues --    3.38027   3.38273   3.42351   3.42352   3.48627
  Beta virt. eigenvalues --    3.48630   3.48925   3.65270   3.65271   3.68966
  Beta virt. eigenvalues --    3.68967   3.73775   3.73776   3.74239   3.75270
  Beta virt. eigenvalues --    3.75391   3.82490   3.82491   3.89617   3.96320
  Beta virt. eigenvalues --    3.96320   4.18026   4.19260   4.19262   4.46622
  Beta virt. eigenvalues --    4.47855   4.47856   4.65380   4.65382   4.69880
  Beta virt. eigenvalues --    4.85954   5.00241   5.00247   5.08009   5.08010
  Beta virt. eigenvalues --    5.22230   5.48422   5.48427   5.88081   5.93452
  Beta virt. eigenvalues --    6.19173   6.19182  15.96800
          Condensed to atoms (all electrons):
               1          2          3          4          5
     1  C    5.900062   0.357615   0.357604   0.357745   0.000866
     2  H    0.357615   0.302934   0.008281   0.008256  -0.000675
     3  H    0.357604   0.008281   0.302907   0.008267  -0.000671
     4  H    0.357745   0.008256   0.008267   0.303079  -0.000670
     5  H    0.000866  -0.000675  -0.000671  -0.000670   0.997781
          Atomic-Atomic Spin Densities.
               1          2          3          4          5
     1  C    0.990534   0.014811   0.014816   0.014703  -0.004543
     2  H    0.014811  -0.032422   0.003477   0.003496   0.000663
     3  H    0.014816   0.003477  -0.032417   0.003489   0.000659
     4  H    0.014703   0.003496   0.003489  -0.032549   0.000658
     5  H   -0.004543   0.000663   0.000659   0.000658  -0.997600
 Mulliken charges and spin densities:
               1          2
     1  C   -0.973892   1.030320
     2  H    0.323589  -0.009975
     3  H    0.323613  -0.009977
     4  H    0.323322  -0.010203
     5  H    0.003368  -1.000164
 Sum of Mulliken charges =  -0.00000  -0.00000
 Mulliken charges and spin densities with hydrogens summed into heavy atoms:
               1          2
     1  C   -0.000000  -0.000000
 Electronic spatial extent (au):  <R**2>=             79.4328
 Charge=             -0.0000 electrons
 Dipole moment (field-independent basis, Debye):
    X=              0.1062    Y=              0.3571    Z=              0.0649  Tot=              0.3782
 Quadrupole moment (field-independent basis, Debye-Ang):
   XX=             -8.8379   YY=            -10.2191   ZZ=             -8.7540
   XY=             -0.4503   XZ=             -0.0817   YZ=             -0.2754
 Traceless Quadrupole moment (field-independent basis, Debye-Ang):
   XX=              0.4324   YY=             -0.9487   ZZ=              0.5163
   XY=             -0.4503   XZ=             -0.0817   YZ=             -0.2754
 Octapole moment (field-independent basis, Debye-Ang**2):
  XXX=              4.3660  YYY=             14.1424  ZZZ=              3.4103  XYY=              1.2812
  XXY=              4.8619  XXZ=              0.1024  XZZ=              1.3770  YZZ=              4.6344
  YYZ=              0.7836  XYZ=              0.2221
 Hexadecapole moment (field-independent basis, Debye-Ang**3):
 XXXX=            -25.5758 YYYY=           -115.8538 ZZZZ=            -20.0340 XXXY=            -14.5242
 XXXZ=             -2.8265 YYYX=            -14.9013 YYYZ=             -9.1137 ZZZX=             -2.5884
 ZZZY=             -8.7107 XXYY=            -23.4607 XXZZ=             -7.7159 YYZZ=            -22.6253
 XXYZ=             -3.1447 YYXZ=             -0.8163 ZZXY=             -4.8597
 N-N= 1.097452476925D+01 E-N=-1.148385847580D+02  KE= 4.007029832537D+01
                          Isotropic Fermi Contact Couplings
        Atom                 a.u.       MegaHertz       Gauss      10(-4) cm-1
     1  C(13)              0.08321      46.77266      16.68965      15.60168
     2  H(1)              -0.01088     -24.31054      -8.67461      -8.10912
     3  H(1)              -0.01088     -24.30711      -8.67338      -8.10798
     4  H(1)              -0.01088     -24.32460      -8.67962      -8.11381
     5  H(1)              -0.29117    -650.73798    -232.19949    -217.06283
 --------------------------------------------------------
       Center         ----  Spin Dipole Couplings  ----
                      3XX-RR        3YY-RR        3ZZ-RR
 --------------------------------------------------------
     1   Atom       -0.417461      0.915881     -0.498420
     2   Atom       -0.066674     -0.009531      0.076205
     3   Atom        0.046173     -0.009532     -0.036642
     4   Atom        0.022933      0.013699     -0.036632
     5   Atom       -0.003355      0.007359     -0.004004
 --------------------------------------------------------
                        XY            XZ            YZ
 --------------------------------------------------------
     1   Atom        0.434807      0.079026      0.265832
     2   Atom        0.018634     -0.000429     -0.001446
     3   Atom        0.007195     -0.058220      0.017248
     4   Atom       -0.028391      0.058181     -0.017363
     5   Atom        0.003492      0.000634      0.002136
 --------------------------------------------------------


 ---------------------------------------------------------------------------------
              Anisotropic Spin Dipole Couplings in Principal Axis System
 ---------------------------------------------------------------------------------

       Atom             a.u.   MegaHertz   Gauss  10(-4) cm-1        Axes

              Baa    -0.5467   -73.367   -26.179   -24.472  0.0176 -0.1839  0.9828
     1 C(13)  Bbb    -0.5467   -73.365   -26.178   -24.472  0.9596 -0.2729 -0.0682
              Bcc     1.0935   146.731    52.357    48.944  0.2807  0.9443  0.1716
 
              Baa    -0.0722   -38.530   -13.748   -12.852  0.9585 -0.2850 -0.0000
     2 H(1)   Bbb    -0.0040    -2.145    -0.765    -0.715  0.2849  0.9584  0.0188
              Bcc     0.0762    40.674    14.514    13.568 -0.0053 -0.0180  0.9998
 
              Baa    -0.0722   -38.530   -13.748   -12.852  0.4369 -0.2849  0.8532
     3 H(1)   Bbb    -0.0040    -2.146    -0.766    -0.716  0.1467  0.9584  0.2449
              Bcc     0.0762    40.676    14.514    13.568  0.8875 -0.0182 -0.4605
 
              Baa    -0.0722   -38.528   -13.748   -12.852 -0.5217  0.0000  0.8531
     4 H(1)   Bbb    -0.0040    -2.142    -0.764    -0.714  0.4008  0.8827  0.2451
              Bcc     0.0762    40.670    14.512    13.566  0.7531 -0.4698  0.4605
 
              Baa    -0.0044    -2.344    -0.836    -0.782  0.6486 -0.3184  0.6914
     5 H(1)   Bbb    -0.0044    -2.343    -0.836    -0.782  0.7075 -0.0827 -0.7018
              Bcc     0.0088     4.687     1.672     1.563  0.2806  0.9444  0.1716
 

 ---------------------------------------------------------------------------------

 DipInt: DoE/N= T T RetVal/Mat= T F Init=T NMatP=  1 IDeriv=0 Min/MaxMlt=  1  1
 Entering OneElI...
 Multipole integrals L=1 to 1 MinM= 0 MaxM= 0.
 Requested accuracy = 0.1000D-12
 PrsmSu:  NPrtUS=   1 ThrOK=F IAlg=1 NPAlg=1 LenDen=           0.
 Prism:   IPart=     0 DynPar=F LinDyn=F Incr=          12.
 PRISM was handed   419324420 working-precision words and  1273 shell-pairs
 IPart=  0 NShTot=        1273 NBatch=          38 AvBLen=        33.5
 PrSmSu:  NxtVal=             13.
 Entering OneElI...
 Calculate overlap and kinetic energy integrals
    NBasis = 155  MinDer = 1  MaxDer = 1
 Requested accuracy = 0.1000D-12
 PrsmSu:  NPrtUS=  32 ThrOK=T IAlg=1 NPAlg=1 LenDen=           0.
 Prism:   IPart=     0 DynPar=F LinDyn=F Incr=           1.
 PRISM was handed    13082774 working-precision words and  1275 shell-pairs
 PRISM was handed    13082774 working-precision words and  1275 shell-pairs
 PRISM was handed    13082774 working-precision words and  1275 shell-pairs
 PRISM was handed    13082774 working-precision words and  1275 shell-pairs
 PRISM was handed    13082774 working-precision words and  1275 shell-pairs
 PRISM was handed    13082774 working-precision words and  1275 shell-pairs
 PRISM was handed    13082774 working-precision words and  1275 shell-pairs
 PRISM was handed    13082774 working-precision words and  1275 shell-pairs
 PRISM was handed    13082774 working-precision words and  1275 shell-pairs
 PRISM was handed    13082774 working-precision words and  1275 shell-pairs
 PRISM was handed    13082774 working-precision words and  1275 shell-pairs
 PRISM was handed    13082774 working-precision words and  1275 shell-pairs
 PRISM was handed    13082774 working-precision words and  1275 shell-pairs
 PRISM was handed    13082774 working-precision words and  1275 shell-pairs
 PRISM was handed    13082774 working-precision words and  1275 shell-pairs
 PRISM was handed    13082774 working-precision words and  1275 shell-pairs
 PRISM was handed    13082774 working-precision words and  1275 shell-pairs
 PRISM was handed    13082774 working-precision words and  1275 shell-pairs
 PRISM was handed    13082774 working-precision words and  1275 shell-pairs
 PRISM was handed    13082774 working-precision words and  1275 shell-pairs
 PRISM was handed    13082774 working-precision words and  1275 shell-pairs
 PRISM was handed    13082774 working-precision words and  1275 shell-pairs
 PRISM was handed    13082774 working-precision words and  1275 shell-pairs
 PRISM was handed    13082774 working-precision words and  1275 shell-pairs
 PRISM was handed    13082774 working-precision words and  1275 shell-pairs
 PRISM was handed    13082774 working-precision words and  1275 shell-pairs
 PRISM was handed    13082774 working-precision words and  1275 shell-pairs
 PRISM was handed    13082774 working-precision words and  1275 shell-pairs
 PRISM was handed    13082774 working-precision words and  1275 shell-pairs
 PRISM was handed    13082774 working-precision words and  1275 shell-pairs
 PRISM was handed    13082774 working-precision words and  1275 shell-pairs
 PRISM was handed    13082774 working-precision words and  1275 shell-pairs
 IPart= 29 NShTot=          31 NBatch=          11 AvBLen=         2.8
 IPart=  1 NShTot=          60 NBatch=          31 AvBLen=         1.9
 IPart= 10 NShTot=          44 NBatch=          20 AvBLen=         2.2
 IPart= 24 NShTot=          32 NBatch=          11 AvBLen=         2.9
 IPart= 27 NShTot=          32 NBatch=          11 AvBLen=         2.9
 IPart=  5 NShTot=          46 NBatch=          21 AvBLen=         2.2
 IPart= 12 NShTot=          40 NBatch=          17 AvBLen=         2.4
 IPart= 30 NShTot=          29 NBatch=           9 AvBLen=         3.2
 IPart=  2 NShTot=          56 NBatch=          28 AvBLen=         2.0
 IPart= 15 NShTot=          36 NBatch=          13 AvBLen=         2.8
 IPart=  6 NShTot=          46 NBatch=          21 AvBLen=         2.2
 IPart= 25 NShTot=          32 NBatch=          11 AvBLen=         2.9
 IPart=  0 NShTot=          68 NBatch=          39 AvBLen=         1.7
 IPart=  4 NShTot=          49 NBatch=          21 AvBLen=         2.3
 IPart= 20 NShTot=          35 NBatch=          12 AvBLen=         2.9
 IPart= 23 NShTot=          34 NBatch=          11 AvBLen=         3.1
 IPart=  8 NShTot=          44 NBatch=          20 AvBLen=         2.2
 IPart= 18 NShTot=          35 NBatch=          12 AvBLen=         2.9
 IPart= 28 NShTot=          31 NBatch=          11 AvBLen=         2.8
 IPart= 19 NShTot=          35 NBatch=          12 AvBLen=         2.9
 IPart= 31 NShTot=          29 NBatch=           9 AvBLen=         3.2
 IPart= 21 NShTot=          35 NBatch=          12 AvBLen=         2.9
 IPart= 13 NShTot=          40 NBatch=          17 AvBLen=         2.4
 IPart=  7 NShTot=          45 NBatch=          21 AvBLen=         2.1
 IPart= 22 NShTot=          34 NBatch=          11 AvBLen=         3.1
 IPart=  9 NShTot=          44 NBatch=          20 AvBLen=         2.2
 IPart= 26 NShTot=          32 NBatch=          11 AvBLen=         2.9
 IPart= 17 NShTot=          35 NBatch=          12 AvBLen=         2.9
 IPart=  3 NShTot=          51 NBatch=          23 AvBLen=         2.2
 IPart= 11 NShTot=          41 NBatch=          17 AvBLen=         2.4
 IPart= 16 NShTot=          35 NBatch=          12 AvBLen=         2.9
 IPart= 14 NShTot=          39 NBatch=          16 AvBLen=         2.4
 PrSmSu:  NxtVal=             33.
 Entering OneElI...
 Calculate potential energy integrals
    NBasis = 155  MinDer = 1  MaxDer = 1
 Requested accuracy = 0.1000D-12
 PrsmSu:  NPrtUS=  32 ThrOK=T IAlg=1 NPAlg=1 LenDen=           0.
 Prism:   IPart=     0 DynPar=F LinDyn=F Incr=           1.
 PRISM was handed    13084495 working-precision words and  1242 shell-pairs
 PRISM was handed    13084495 working-precision words and  1242 shell-pairs
 PRISM was handed    13084495 working-precision words and  1242 shell-pairs
 PRISM was handed    13084495 working-precision words and  1242 shell-pairs
 PRISM was handed    13084495 working-precision words and  1242 shell-pairs
 PRISM was handed    13084495 working-precision words and  1242 shell-pairs
 PRISM was handed    13084495 working-precision words and  1242 shell-pairs
 PRISM was handed    13084495 working-precision words and  1242 shell-pairs
 PRISM was handed    13084495 working-precision words and  1242 shell-pairs
 PRISM was handed    13084495 working-precision words and  1242 shell-pairs
 PRISM was handed    13084495 working-precision words and  1242 shell-pairs
 PRISM was handed    13084495 working-precision words and  1242 shell-pairs
 PRISM was handed    13084495 working-precision words and  1242 shell-pairs
 PRISM was handed    13084495 working-precision words and  1242 shell-pairs
 PRISM was handed    13084495 working-precision words and  1242 shell-pairs
 PRISM was handed    13084495 working-precision words and  1242 shell-pairs
 PRISM was handed    13084495 working-precision words and  1242 shell-pairs
 PRISM was handed    13084495 working-precision words and  1242 shell-pairs
 PRISM was handed    13084495 working-precision words and  1242 shell-pairs
 PRISM was handed    13084495 working-precision words and  1242 shell-pairs
 PRISM was handed    13084495 working-precision words and  1242 shell-pairs
 PRISM was handed    13084495 working-precision words and  1242 shell-pairs
 PRISM was handed    13084495 working-precision words and  1242 shell-pairs
 PRISM was handed    13084495 working-precision words and  1242 shell-pairs
 PRISM was handed    13084495 working-precision words and  1242 shell-pairs
 PRISM was handed    13084495 working-precision words and  1242 shell-pairs
 PRISM was handed    13084495 working-precision words and  1242 shell-pairs
 PRISM was handed    13084495 working-precision words and  1242 shell-pairs
 PRISM was handed    13084495 working-precision words and  1242 shell-pairs
 PRISM was handed    13084495 working-precision words and  1242 shell-pairs
 PRISM was handed    13084495 working-precision words and  1242 shell-pairs
 PRISM was handed    13084495 working-precision words and  1242 shell-pairs
 IPart= 16 NShTot=         175 NBatch=          35 AvBLen=         5.0
 IPart= 26 NShTot=         160 NBatch=          32 AvBLen=         5.0
 IPart= 11 NShTot=         200 NBatch=          40 AvBLen=         5.0
 IPart=  7 NShTot=         215 NBatch=          43 AvBLen=         5.0
 IPart= 22 NShTot=         165 NBatch=          33 AvBLen=         5.0
 IPart= 30 NShTot=         150 NBatch=          30 AvBLen=         5.0
 IPart= 24 NShTot=         165 NBatch=          33 AvBLen=         5.0
 IPart=  9 NShTot=         215 NBatch=          43 AvBLen=         5.0
 IPart= 20 NShTot=         175 NBatch=          35 AvBLen=         5.0
 IPart= 14 NShTot=         185 NBatch=          37 AvBLen=         5.0
 IPart= 17 NShTot=         175 NBatch=          35 AvBLen=         5.0
 IPart= 28 NShTot=         155 NBatch=          31 AvBLen=         5.0
 IPart=  1 NShTot=         285 NBatch=          57 AvBLen=         5.0
 IPart=  3 NShTot=         240 NBatch=          48 AvBLen=         5.0
 IPart=  5 NShTot=         225 NBatch=          45 AvBLen=         5.0
 IPart= 21 NShTot=         170 NBatch=          34 AvBLen=         5.0
 IPart= 15 NShTot=         175 NBatch=          35 AvBLen=         5.0
 IPart= 19 NShTot=         175 NBatch=          35 AvBLen=         5.0
 IPart=  0 NShTot=         315 NBatch=          63 AvBLen=         5.0
 IPart= 23 NShTot=         165 NBatch=          33 AvBLen=         5.0
 IPart= 12 NShTot=         200 NBatch=          40 AvBLen=         5.0
 IPart= 25 NShTot=         160 NBatch=          32 AvBLen=         5.0
 IPart=  4 NShTot=         235 NBatch=          47 AvBLen=         5.0
 IPart=  2 NShTot=         265 NBatch=          53 AvBLen=         5.0
 IPart= 18 NShTot=         175 NBatch=          35 AvBLen=         5.0
 IPart= 31 NShTot=         135 NBatch=          27 AvBLen=         5.0
 IPart= 29 NShTot=         155 NBatch=          31 AvBLen=         5.0
 IPart= 27 NShTot=         160 NBatch=          32 AvBLen=         5.0
 IPart= 10 NShTot=         200 NBatch=          40 AvBLen=         5.0
 IPart=  8 NShTot=         215 NBatch=          43 AvBLen=         5.0
 IPart=  6 NShTot=         225 NBatch=          45 AvBLen=         5.0
 IPart= 13 NShTot=         200 NBatch=          40 AvBLen=         5.0
 PrSmSu:  NxtVal=             33.
 l701 out
 I=    0 X=   4.177036150993D-02 Y=   1.404955797420D-01 Z=   2.553096732082D-02
 I=    1 X=  -3.117958875755D-01 Y=  -1.049723218277D+00 Z=  -1.905926180578D-01
 I=    2 X=   8.787778083313D-03 Y=   3.002005515513D-02 Z=   2.332491523860D+00
 I=    3 X=   2.080193459758D+00 Y=   3.000692027710D-02 Z=  -1.055196729495D+00
 I=    4 X=  -1.726125373113D+00 Y=   1.161518059814D+00 Z=  -1.055472279791D+00
 I=    5 X=  -5.105997715340D-02 Y=  -1.718218169691D-01 Z=  -3.122989651658D-02
 ICntrl=      2127.
 Calling FoFJK, ICntrl=      2127 FMM=F ISym2X=0 I1Cent= 0 IOpClX= 1 NMat=1 NMatS=1 NMatT=0.
 FoFJK:  IHMeth= 1 ICntrl=    2127 DoSepK=T KAlg= 0 I1Cent=   0 FoldK=F
 IRaf=         1 NMat=   1 IRICut=       1 DoRegI=T DoRafI=F ISym2E= 0.
 FoFCou: FMM=F IPFlag=           0 FMFlag=      100000 FMFlg1=         800
         NFxFlg=           0 DoJE=F BraDBF=F KetDBF=F FulRan=T
         wScrn=  0.000000 ICntrl=    2527 IOpCl=  0 I1Cent=           0 NGrid=           0
         NMat0=    1 NMatS0=      1 NMatT0=    0 NMatD0=    1 NMtDS0=    0 NMtDT0=    0
 Symmetry not used in FoFCou.
 FoFCou:  KetSym=F NOpSet=  1 NOpAb=1 NOp=  1.
 FoFCou:  CnvScl= 1.00D+00 Thresh= 1.00D-10 IAcrcy=      10.
 PrismS was handed   419299606 working-precision words and  1263 shell-pairs
 FoFCou: LinMIO=F DoNuc=F BraDBF=F KetDBF=F HaveP=T PDBF=F HaveZ=T HaveW=F
         NIJTC =      10 NIJTAt=       0 NIJTCD=       0 NIJTT =      10
         IJTBeg=       1 IJTEnd=      10 KLTBeg=       1 KLTEnd=      10
         IPTBeg=       1 IPTEnd=      10 IPTBCv=       1 IPTECv=      10
         IZTBeg=       1 IZTEnd=      10 IZTBCv=       1 IZTECv=      10
         IWTBeg=      11 IWTEnd=      10 IWTBCv=      11 IWTECv=      10
         INTBeg=       1 INTEnd=       0 IFTBCv=       1 IFTECv=      10
 NCel replicated for PrismC:     1
 CoulSu:  IncDef=  1024 NBBP=         798216 NTPThr=   100 NPartT=   32 Incr=         249 LDynOK=F.
 CoulSu:  NPrtUS=  32 ThrOK=T IAlg=1 NPAlg=1 LenDen=           0 LWGrdD=           0 DoCopy=F.
 Enter PrismC: JobTyp=21 DoJE=F Cont=F.
 Enter PrismC: JobTyp=21 DoJE=F Cont=F.
 Enter PrismC: JobTyp=21 DoJE=F Cont=F.
 Enter PrismC: JobTyp=21 DoJE=F Cont=F.
 Enter PrismC: JobTyp=21 DoJE=F Cont=F.
 Enter PrismC: JobTyp=21 DoJE=F Cont=F.
 Enter PrismC: JobTyp=21 DoJE=F Cont=F.
 Enter PrismC: JobTyp=21 DoJE=F Cont=F.
 Enter PrismC: JobTyp=21 DoJE=F Cont=F.
 Enter PrismC: JobTyp=21 DoJE=F Cont=F.
 PrismC:  IPart=     0 DynPar=T LinDyn=F Incr=         249 UseFst=F UseS4=T IGathr=2.
 PrismC was handed    13083491 working-precision words and  1263 shell-pairs
 Enter PrismC: JobTyp=21 DoJE=F Cont=F.
 Enter PrismC: JobTyp=21 DoJE=F Cont=F.
 Enter PrismC: JobTyp=21 DoJE=F Cont=F.
 Enter PrismC: JobTyp=21 DoJE=F Cont=F.
 Enter PrismC: JobTyp=21 DoJE=F Cont=F.
 Enter PrismC: JobTyp=21 DoJE=F Cont=F.
 Enter PrismC: JobTyp=21 DoJE=F Cont=F.
 Enter PrismC: JobTyp=21 DoJE=F Cont=F.
 Enter PrismC: JobTyp=21 DoJE=F Cont=F.
 Enter PrismC: JobTyp=21 DoJE=F Cont=F.
 Enter PrismC: JobTyp=21 DoJE=F Cont=F.
 Enter PrismC: JobTyp=21 DoJE=F Cont=F.
 Enter PrismC: JobTyp=21 DoJE=F Cont=F.
 PrismC was handed    13083491 working-precision words and  1263 shell-pairs
 Enter PrismC: JobTyp=21 DoJE=F Cont=F.
 PrismC was handed    13083491 working-precision words and  1263 shell-pairs
 Enter PrismC: JobTyp=21 DoJE=F Cont=F.
 PrismC was handed    13083491 working-precision words and  1263 shell-pairs
 Enter PrismC: JobTyp=21 DoJE=F Cont=F.
 PrismC was handed    13083491 working-precision words and  1263 shell-pairs
 Enter PrismC: JobTyp=21 DoJE=F Cont=F.
 PrismC was handed    13083491 working-precision words and  1263 shell-pairs
 Enter PrismC: JobTyp=21 DoJE=F Cont=F.
 PrismC was handed    13083491 working-precision words and  1263 shell-pairs
 Enter PrismC: JobTyp=21 DoJE=F Cont=F.
 PrismC was handed    13083491 working-precision words and  1263 shell-pairs
 Enter PrismC: JobTyp=21 DoJE=F Cont=F.
 PrismC was handed    13083491 working-precision words and  1263 shell-pairs
 Enter PrismC: JobTyp=21 DoJE=F Cont=F.
 PrismC was handed    13083491 working-precision words and  1263 shell-pairs
 PrismC was handed    13083491 working-precision words and  1263 shell-pairs
 PrismC was handed    13083491 working-precision words and  1263 shell-pairs
 PrismC was handed    13083491 working-precision words and  1263 shell-pairs
 PrismC was handed    13083491 working-precision words and  1263 shell-pairs
 PrismC was handed    13083491 working-precision words and  1263 shell-pairs
 PrismC was handed    13083491 working-precision words and  1263 shell-pairs
 PrismC was handed    13083491 working-precision words and  1263 shell-pairs
 PrismC was handed    13083491 working-precision words and  1263 shell-pairs
 Enter PrismC: JobTyp=21 DoJE=F Cont=F.
 PrismC was handed    13083491 working-precision words and  1263 shell-pairs
 PrismC was handed    13083491 working-precision words and  1263 shell-pairs
 PrismC was handed    13083491 working-precision words and  1263 shell-pairs
 PrismC was handed    13083491 working-precision words and  1263 shell-pairs
 PrismC was handed    13083491 working-precision words and  1263 shell-pairs
 PrismC was handed    13083491 working-precision words and  1263 shell-pairs
 PrismC was handed    13083491 working-precision words and  1263 shell-pairs
 PrismC was handed    13083491 working-precision words and  1263 shell-pairs
 PrismC was handed    13083491 working-precision words and  1263 shell-pairs
 PrismC was handed    13083491 working-precision words and  1263 shell-pairs
 PrismC was handed    13083491 working-precision words and  1263 shell-pairs
 PrismC was handed    13083491 working-precision words and  1263 shell-pairs
 PrismC was handed    13083491 working-precision words and  1263 shell-pairs
 PrismC was handed    13083491 working-precision words and  1263 shell-pairs
 IPart= 24 NShTot=       23719 NShNF=       23719 NShFF=           0 NBatch=         224 AvBLen=       105.9
 IPart= 18 NShTot=       23855 NShNF=       23855 NShFF=           0 NBatch=         231 AvBLen=       103.3
 IPart= 29 NShTot=       25471 NShNF=       25471 NShFF=           0 NBatch=         245 AvBLen=       104.0
 IPart=  7 NShTot=       24222 NShNF=       24222 NShFF=           0 NBatch=         208 AvBLen=       116.5
 IPart=  6 NShTot=       27382 NShNF=       27382 NShFF=           0 NBatch=         242 AvBLen=       113.1
 IPart=  0 NShTot=       22735 NShNF=       22735 NShFF=           0 NBatch=         184 AvBLen=       123.6
 IPart=  3 NShTot=       23413 NShNF=       23413 NShFF=           0 NBatch=         229 AvBLen=       102.2
 IPart= 15 NShTot=       23292 NShNF=       23292 NShFF=           0 NBatch=         244 AvBLen=        95.5
 IPart= 28 NShTot=       24597 NShNF=       24597 NShFF=           0 NBatch=         242 AvBLen=       101.6
 IPart= 13 NShTot=       23057 NShNF=       23057 NShFF=           0 NBatch=         230 AvBLen=       100.2
 IPart= 23 NShTot=       21598 NShNF=       21598 NShFF=           0 NBatch=         225 AvBLen=        96.0
 IPart= 10 NShTot=       22049 NShNF=       22049 NShFF=           0 NBatch=         232 AvBLen=        95.0
 IPart= 14 NShTot=       24950 NShNF=       24950 NShFF=           0 NBatch=         223 AvBLen=       111.9
 IPart= 22 NShTot=       26327 NShNF=       26327 NShFF=           0 NBatch=         244 AvBLen=       107.9
 IPart= 25 NShTot=       19874 NShNF=       19874 NShFF=           0 NBatch=         221 AvBLen=        89.9
 IPart=  9 NShTot=       24910 NShNF=       24910 NShFF=           0 NBatch=         237 AvBLen=       105.1
 IPart= 27 NShTot=       21917 NShNF=       21917 NShFF=           0 NBatch=         244 AvBLen=        89.8
 IPart= 17 NShTot=       20101 NShNF=       20101 NShFF=           0 NBatch=         207 AvBLen=        97.1
 IPart= 19 NShTot=       18366 NShNF=       18366 NShFF=           0 NBatch=         230 AvBLen=        79.9
 IPart= 31 NShTot=       19068 NShNF=       19068 NShFF=           0 NBatch=         240 AvBLen=        79.5
 IPart= 20 NShTot=       23317 NShNF=       23317 NShFF=           0 NBatch=         244 AvBLen=        95.6
 IPart= 21 NShTot=       22478 NShNF=       22478 NShFF=           0 NBatch=         220 AvBLen=       102.2
 IPart= 30 NShTot=       24076 NShNF=       24076 NShFF=           0 NBatch=         180 AvBLen=       133.8
 IPart= 16 NShTot=       23166 NShNF=       23166 NShFF=           0 NBatch=         228 AvBLen=       101.6
 IPart= 26 NShTot=       25720 NShNF=       25720 NShFF=           0 NBatch=         247 AvBLen=       104.1
 IPart= 12 NShTot=       18880 NShNF=       18880 NShFF=           0 NBatch=         224 AvBLen=        84.3
 IPart=  5 NShTot=       21809 NShNF=       21809 NShFF=           0 NBatch=         256 AvBLen=        85.2
 IPart=  2 NShTot=       20306 NShNF=       20306 NShFF=           0 NBatch=         221 AvBLen=        91.9
 IPart= 11 NShTot=       25358 NShNF=       25358 NShFF=           0 NBatch=         231 AvBLen=       109.8
 IPart=  4 NShTot=       21956 NShNF=       21956 NShFF=           0 NBatch=         221 AvBLen=        99.3
 IPart=  1 NShTot=       25455 NShNF=       25455 NShFF=           0 NBatch=         250 AvBLen=       101.8
 IPart=  8 NShTot=       23656 NShNF=       23656 NShFF=           0 NBatch=         244 AvBLen=        97.0
 CoulSu:  NxtVal=         883453.
 FoFCou: FMM=F IPFlag=           0 FMFlag=      100000 FMFlg1=         800
         NFxFlg=           0 DoJE=F BraDBF=F KetDBF=F FulRan=T
         wScrn=  0.000000 ICntrl=    2127 IOpCl=  1 I1Cent=           0 NGrid=           0
         NMat0=    1 NMatS0=      0 NMatT0=    1 NMatD0=    1 NMtDS0=    0 NMtDT0=    0
         CW=    0.222036    0.777964
         WU=    0.000000   12.500000
 Symmetry not used in FoFCou.
 FoFCou:  KetSym=F NOpSet=  1 NOpAb=1 NOp=  1.
 FoFCou:  CnvScl= 1.00D+00 Thresh= 1.00D-10 IAcrcy=      10.
 PrismS was handed   419298366 working-precision words and  1263 shell-pairs
 FoFCou: LinMIO=F DoNuc=F BraDBF=F KetDBF=F HaveP=T PDBF=F HaveZ=T HaveW=F
         NIJTC =      10 NIJTAt=       0 NIJTCD=       0 NIJTT =      10
         IJTBeg=       1 IJTEnd=      10 KLTBeg=       1 KLTEnd=      10
         IPTBeg=       1 IPTEnd=      10 IPTBCv=       1 IPTECv=      10
         IZTBeg=       1 IZTEnd=      10 IZTBCv=       1 IZTECv=      10
         IWTBeg=      11 IWTEnd=      10 IWTBCv=      11 IWTECv=      10
         INTBeg=       1 INTEnd=       0 IFTBCv=       1 IFTECv=      10
 NCel replicated for PrismC:     1
 CoulSu:  IncDef=  1024 NBBP=         798216 NTPThr=   100 NPartT=   32 Incr=         249 LDynOK=F.
 CoulSu:  NPrtUS=  32 ThrOK=T IAlg=1 NPAlg=1 LenDen=           0 LWGrdD=           0 DoCopy=F.
 Enter PrismC: JobTyp=21 DoJE=F Cont=F.
 Linear combination for Coulomb/exchange, wScrn=  0.000000
 CW=    0.222036    0.777964
 WU=    0.000000   12.500000
 Enter PrismC: JobTyp=21 DoJE=F Cont=F.
 Enter PrismC: JobTyp=21 DoJE=F Cont=F.
 Linear combination for Coulomb/exchange, wScrn=  0.000000
 CW=    0.222036    0.777964
 WU=    0.000000   12.500000
 PrismC was handed    13083453 working-precision words and  1263 shell-pairs
 Enter PrismC: JobTyp=21 DoJE=F Cont=F.
 Enter PrismC: JobTyp=21 DoJE=F Cont=F.
 Linear combination for Coulomb/exchange, wScrn=  0.000000
 CW=    0.222036    0.777964
 WU=    0.000000   12.500000
 Enter PrismC: JobTyp=21 DoJE=F Cont=F.
 Linear combination for Coulomb/exchange, wScrn=  0.000000
 Enter PrismC: JobTyp=21 DoJE=F Cont=F.
 Linear combination for Coulomb/exchange, wScrn=  0.000000
 CW=    0.222036    0.777964
 WU=    0.000000   12.500000
 PrismC was handed    13083453 working-precision words and  1263 shell-pairs
 Enter PrismC: JobTyp=21 DoJE=F Cont=F.
 Linear combination for Coulomb/exchange, wScrn=  0.000000
 CW=    0.222036    0.777964
 WU=    0.000000   12.500000
 Enter PrismC: JobTyp=21 DoJE=F Cont=F.
 Linear combination for Coulomb/exchange, wScrn=  0.000000
 CW=    0.222036    0.777964
 WU=    0.000000   12.500000
 Enter PrismC: JobTyp=21 DoJE=F Cont=F.
 Linear combination for Coulomb/exchange, wScrn=  0.000000
 CW=    0.222036    0.777964
 WU=    0.000000   12.500000
 Enter PrismC: JobTyp=21 DoJE=F Cont=F.
 Linear combination for Coulomb/exchange, wScrn=  0.000000
 CW=    0.222036    0.777964
 WU=    0.000000   12.500000
 Enter PrismC: JobTyp=21 DoJE=F Cont=F.
 Linear combination for Coulomb/exchange, wScrn=  0.000000
 CW=    0.222036    0.777964
 WU=    0.000000   12.500000
 Enter PrismC: JobTyp=21 DoJE=F Cont=F.
 Linear combination for Coulomb/exchange, wScrn=  0.000000
 CW=    0.222036    0.777964
 WU=    0.000000   12.500000
 PrismC was handed    13083453 working-precision words and  1263 shell-pairs
 CW=    0.222036    0.777964
 WU=    0.000000   12.500000
 PrismC was handed    13083453 working-precision words and  1263 shell-pairs
 Enter PrismC: JobTyp=21 DoJE=F Cont=F.
 Linear combination for Coulomb/exchange, wScrn=  0.000000
 CW=    0.222036    0.777964
 WU=    0.000000   12.500000
 Enter PrismC: JobTyp=21 DoJE=F Cont=F.
 Linear combination for Coulomb/exchange, wScrn=  0.000000
 CW=    0.222036    0.777964
 WU=    0.000000   12.500000
 Enter PrismC: JobTyp=21 DoJE=F Cont=F.
 Linear combination for Coulomb/exchange, wScrn=  0.000000
 CW=    0.222036    0.777964
 WU=    0.000000   12.500000
 PrismC was handed    13083453 working-precision words and  1263 shell-pairs
 Enter PrismC: JobTyp=21 DoJE=F Cont=F.
 Linear combination for Coulomb/exchange, wScrn=  0.000000
 CW=    0.222036    0.777964
 WU=    0.000000   12.500000
 Enter PrismC: JobTyp=21 DoJE=F Cont=F.
 Linear combination for Coulomb/exchange, wScrn=  0.000000
 CW=    0.222036    0.777964
 WU=    0.000000   12.500000
 Enter PrismC: JobTyp=21 DoJE=F Cont=F.
 Linear combination for Coulomb/exchange, wScrn=  0.000000
 CW=    0.222036    0.777964
 WU=    0.000000   12.500000
 PrismC was handed    13083453 working-precision words and  1263 shell-pairs
 PrismC was handed    13083453 working-precision words and  1263 shell-pairs
 Enter PrismC: JobTyp=21 DoJE=F Cont=F.
 Linear combination for Coulomb/exchange, wScrn=  0.000000
 CW=    0.222036    0.777964
 WU=    0.000000   12.500000
 Enter PrismC: JobTyp=21 DoJE=F Cont=F.
 Linear combination for Coulomb/exchange, wScrn=  0.000000
 CW=    0.222036    0.777964
 WU=    0.000000   12.500000
 Enter PrismC: JobTyp=21 DoJE=F Cont=F.
 Linear combination for Coulomb/exchange, wScrn=  0.000000
 CW=    0.222036    0.777964
 WU=    0.000000   12.500000
 PrismC was handed    13083453 working-precision words and  1263 shell-pairs
 PrismC was handed    13083453 working-precision words and  1263 shell-pairs
 Enter PrismC: JobTyp=21 DoJE=F Cont=F.
 PrismC was handed    13083453 working-precision words and  1263 shell-pairs
 Linear combination for Coulomb/exchange, wScrn=  0.000000
 CW=    0.222036    0.777964
 WU=    0.000000   12.500000
 Enter PrismC: JobTyp=21 DoJE=F Cont=F.
 Linear combination for Coulomb/exchange, wScrn=  0.000000
 CW=    0.222036    0.777964
 WU=    0.000000   12.500000
 PrismC:  IPart=     0 DynPar=T LinDyn=F Incr=         249 UseFst=F UseS4=T IGathr=2.
 PrismC was handed    13083453 working-precision words and  1263 shell-pairs
 Enter PrismC: JobTyp=21 DoJE=F Cont=F.
 Linear combination for Coulomb/exchange, wScrn=  0.000000
 CW=    0.222036    0.777964
 WU=    0.000000   12.500000
 PrismC was handed    13083453 working-precision words and  1263 shell-pairs
 Enter PrismC: JobTyp=21 DoJE=F Cont=F.
 Linear combination for Coulomb/exchange, wScrn=  0.000000
 CW=    0.222036    0.777964
 WU=    0.000000   12.500000
 PrismC was handed    13083453 working-precision words and  1263 shell-pairs
 Enter PrismC: JobTyp=21 DoJE=F Cont=F.
 PrismC was handed    13083453 working-precision words and  1263 shell-pairs
 Enter PrismC: JobTyp=21 DoJE=F Cont=F.
 Linear combination for Coulomb/exchange, wScrn=  0.000000
 CW=    0.222036    0.777964
 WU=    0.000000   12.500000
 PrismC was handed    13083453 working-precision words and  1263 shell-pairs
 PrismC was handed    13083453 working-precision words and  1263 shell-pairs
 PrismC was handed    13083453 working-precision words and  1263 shell-pairs
 Linear combination for Coulomb/exchange, wScrn=  0.000000
 CW=    0.222036    0.777964
 WU=    0.000000   12.500000
 Enter PrismC: JobTyp=21 DoJE=F Cont=F.
 Linear combination for Coulomb/exchange, wScrn=  0.000000
 CW=    0.222036    0.777964
 WU=    0.000000   12.500000
 PrismC was handed    13083453 working-precision words and  1263 shell-pairs
 PrismC was handed    13083453 working-precision words and  1263 shell-pairs
 PrismC was handed    13083453 working-precision words and  1263 shell-pairs
 PrismC was handed    13083453 working-precision words and  1263 shell-pairs
 Linear combination for Coulomb/exchange, wScrn=  0.000000
 CW=    0.222036    0.777964
 WU=    0.000000   12.500000
 Enter PrismC: JobTyp=21 DoJE=F Cont=F.
 Linear combination for Coulomb/exchange, wScrn=  0.000000
 CW=    0.222036    0.777964
 WU=    0.000000   12.500000
 PrismC was handed    13083453 working-precision words and  1263 shell-pairs
 PrismC was handed    13083453 working-precision words and  1263 shell-pairs
 Enter PrismC: JobTyp=21 DoJE=F Cont=F.
 PrismC was handed    13083453 working-precision words and  1263 shell-pairs
 Linear combination for Coulomb/exchange, wScrn=  0.000000
 CW=    0.222036    0.777964
 WU=    0.000000   12.500000
 PrismC was handed    13083453 working-precision words and  1263 shell-pairs
 PrismC was handed    13083453 working-precision words and  1263 shell-pairs
 Enter PrismC: JobTyp=21 DoJE=F Cont=F.
 Linear combination for Coulomb/exchange, wScrn=  0.000000
 CW=    0.222036    0.777964
 WU=    0.000000   12.500000
 PrismC was handed    13083453 working-precision words and  1263 shell-pairs
 PrismC was handed    13083453 working-precision words and  1263 shell-pairs
 PrismC was handed    13083453 working-precision words and  1263 shell-pairs
 Linear combination for Coulomb/exchange, wScrn=  0.000000
 CW=    0.222036    0.777964
 WU=    0.000000   12.500000
 PrismC was handed    13083453 working-precision words and  1263 shell-pairs
 PrismC was handed    13083453 working-precision words and  1263 shell-pairs
 PrismC was handed    13083453 working-precision words and  1263 shell-pairs
 IPart= 22 NShTot=       27191 NShNF=       27191 NShFF=           0 NBatch=         296 AvBLen=        91.9
 IPart= 25 NShTot=       21159 NShNF=       21159 NShFF=           0 NBatch=         264 AvBLen=        80.1
 IPart= 21 NShTot=       21717 NShNF=       21717 NShFF=           0 NBatch=         245 AvBLen=        88.6
 IPart=  4 NShTot=       24851 NShNF=       24851 NShFF=           0 NBatch=         283 AvBLen=        87.8
 IPart= 18 NShTot=       25772 NShNF=       25772 NShFF=           0 NBatch=         259 AvBLen=        99.5
 IPart= 20 NShTot=       20893 NShNF=       20893 NShFF=           0 NBatch=         317 AvBLen=        65.9
 IPart=  1 NShTot=       22045 NShNF=       22045 NShFF=           0 NBatch=         265 AvBLen=        83.2
 IPart=  2 NShTot=       19450 NShNF=       19450 NShFF=           0 NBatch=         184 AvBLen=       105.7
 IPart= 11 NShTot=       22335 NShNF=       22335 NShFF=           0 NBatch=         269 AvBLen=        83.0
 IPart=  6 NShTot=       25127 NShNF=       25127 NShFF=           0 NBatch=         293 AvBLen=        85.8
 IPart= 13 NShTot=       24007 NShNF=       24007 NShFF=           0 NBatch=         305 AvBLen=        78.7
 IPart= 10 NShTot=       24996 NShNF=       24996 NShFF=           0 NBatch=         208 AvBLen=       120.2
 IPart=  3 NShTot=       23897 NShNF=       23897 NShFF=           0 NBatch=         272 AvBLen=        87.9
 IPart= 12 NShTot=       23377 NShNF=       23377 NShFF=           0 NBatch=         229 AvBLen=       102.1
 IPart= 30 NShTot=       25114 NShNF=       25114 NShFF=           0 NBatch=         269 AvBLen=        93.4
 IPart= 14 NShTot=       22871 NShNF=       22871 NShFF=           0 NBatch=         290 AvBLen=        78.9
 IPart= 28 NShTot=       22543 NShNF=       22543 NShFF=           0 NBatch=         303 AvBLen=        74.4
 IPart= 19 NShTot=       23707 NShNF=       23707 NShFF=           0 NBatch=         222 AvBLen=       106.8
 IPart=  9 NShTot=       23098 NShNF=       23098 NShFF=           0 NBatch=         312 AvBLen=        74.0
 IPart= 24 NShTot=       21376 NShNF=       21376 NShFF=           0 NBatch=         295 AvBLen=        72.5
 IPart=  8 NShTot=       23797 NShNF=       23797 NShFF=           0 NBatch=         278 AvBLen=        85.6
 IPart= 15 NShTot=       21938 NShNF=       21938 NShFF=           0 NBatch=         301 AvBLen=        72.9
 IPart= 31 NShTot=       22426 NShNF=       22426 NShFF=           0 NBatch=         273 AvBLen=        82.1
 IPart=  0 NShTot=       23239 NShNF=       23239 NShFF=           0 NBatch=         284 AvBLen=        81.8
 IPart= 17 NShTot=       20113 NShNF=       20113 NShFF=           0 NBatch=         240 AvBLen=        83.8
 IPart= 26 NShTot=       24566 NShNF=       24566 NShFF=           0 NBatch=         294 AvBLen=        83.6
 IPart=  5 NShTot=       21896 NShNF=       21896 NShFF=           0 NBatch=         293 AvBLen=        74.7
 IPart= 23 NShTot=       22912 NShNF=       22912 NShFF=           0 NBatch=         224 AvBLen=       102.3
 IPart= 16 NShTot=       25129 NShNF=       25129 NShFF=           0 NBatch=         296 AvBLen=        84.9
 IPart=  7 NShTot=       23588 NShNF=       23588 NShFF=           0 NBatch=         317 AvBLen=        74.4
 IPart= 29 NShTot=       22897 NShNF=       22897 NShFF=           0 NBatch=         252 AvBLen=        90.9
 IPart= 27 NShTot=       21544 NShNF=       21544 NShFF=           0 NBatch=         256 AvBLen=        84.2
 CoulSu:  NxtVal=         883453.
 ReadGW:  IGet=0 IStart=           1 Next=           1 LGW=           0.
 Remaining memory in FofDFT      399.95 Mw
 CkSvGd:  ISavGI=        -1 IRadAn=       5 IRASav=       5 ISavGd=        -1.
 CalDSu:  NPrtUS=  32 ThrOK=T IAlg=1 NPAlg=2 DoDPD=T LenP=       12090 LenD1P=             0.
 IPart=  0 IRanGd=          0 ScrnBf=T ScrnGd=T RCrit=4.00D+00 DoMicB=T.
 IPart= 22         2599 of         2718 points in       2 batches and       23 microbatches, Max-NSigAt=       5 Max-NSgAt2=       5
 IPart= 16         3644 of         4066 points in       5 batches and        9 microbatches, Max-NSigAt=       5 Max-NSgAt2=       5
 IPart= 28         3468 of         3968 points in       5 batches and       37 microbatches, Max-NSigAt=       5 Max-NSgAt2=       5
 IPart= 19         3203 of         3568 points in       4 batches and       30 microbatches, Max-NSigAt=       5 Max-NSgAt2=       5
 IPart=  8         2828 of         2992 points in       3 batches and       19 microbatches, Max-NSigAt=       5 Max-NSgAt2=       5
 IPart= 20         3266 of         3548 points in       4 batches and        9 microbatches, Max-NSigAt=       5 Max-NSgAt2=       5
 IPart=  6         2671 of         2732 points in       2 batches and        9 microbatches, Max-NSigAt=       5 Max-NSgAt2=       5
 IPart= 14         3047 of         3142 points in       3 batches and        7 microbatches, Max-NSigAt=       5 Max-NSgAt2=       5
 IPart= 17         2745 of         2964 points in       3 batches and       11 microbatches, Max-NSigAt=       5 Max-NSgAt2=       5
 IPart= 26         2799 of         2964 points in       3 batches and       27 microbatches, Max-NSigAt=       5 Max-NSgAt2=       5
 IPart= 10         2764 of         2992 points in       3 batches and       25 microbatches, Max-NSigAt=       5 Max-NSgAt2=       5
 IPart= 25         3170 of         3336 points in       3 batches and        8 microbatches, Max-NSigAt=       5 Max-NSgAt2=       5
 IPart=  7         3220 of         3568 points in       4 batches and       44 microbatches, Max-NSigAt=       5 Max-NSgAt2=       5
 IPart= 24         3749 of         4172 points in       5 batches and       32 microbatches, Max-NSigAt=       5 Max-NSgAt2=       5
 IPart=  9         3192 of         3246 points in       3 batches and       26 microbatches, Max-NSigAt=       5 Max-NSgAt2=       5
 IPart= 23         3159 of         3188 points in       3 batches and       21 microbatches, Max-NSigAt=       5 Max-NSgAt2=       5
 IPart=  1         3352 of         3596 points in       4 batches and       33 microbatches, Max-NSigAt=       5 Max-NSgAt2=       5
 IPart= 21         3707 of         4228 points in       6 batches and       65 microbatches, Max-NSigAt=       5 Max-NSgAt2=       5
 IPart= 15         3982 of         4156 points in       4 batches and       10 microbatches, Max-NSigAt=       5 Max-NSgAt2=       5
 IPart=  3         3732 of         3736 points in       3 batches and       10 microbatches, Max-NSigAt=       5 Max-NSgAt2=       5
 IPart= 18         4275 of         4804 points in       6 batches and       32 microbatches, Max-NSigAt=       5 Max-NSgAt2=       5
 IPart=  2         3430 of         3540 points in       3 batches and       12 microbatches, Max-NSigAt=       5 Max-NSgAt2=       5
 IPart= 31         3719 of         3822 points in       3 batches and       10 microbatches, Max-NSigAt=       5 Max-NSgAt2=       5
 IPart= 11         3493 of         3540 points in       3 batches and       11 microbatches, Max-NSigAt=       5 Max-NSgAt2=       5
 IPart= 27         4376 of         4726 points in       6 batches and       29 microbatches, Max-NSigAt=       5 Max-NSgAt2=       5
 IPart=  4         3840 of         4200 points in       5 batches and       29 microbatches, Max-NSigAt=       5 Max-NSgAt2=       5
 IPart= 12         3404 of         3568 points in       4 batches and       24 microbatches, Max-NSigAt=       5 Max-NSgAt2=       5
 IPart= 29         4005 of         4168 points in       4 batches and       11 microbatches, Max-NSigAt=       5 Max-NSgAt2=       5
 IPart= 13         3676 of         3822 points in       3 batches and       11 microbatches, Max-NSigAt=       5 Max-NSgAt2=       5
 IPart=  5         3420 of         3540 points in       3 batches and       13 microbatches, Max-NSigAt=       5 Max-NSgAt2=       5
 IPart= 30         3409 of         3568 points in       4 batches and       30 microbatches, Max-NSigAt=       5 Max-NSgAt2=       5
 IPart=  0         3426 of         3592 points in       4 batches and       28 microbatches, Max-NSigAt=       5 Max-NSgAt2=       5
 Forces at end of L703
 I=    0 X=   4.177036150993D-02 Y=   1.404955797420D-01 Z=   2.553096732082D-02
 I=    1 X=  -3.395899544659D-03 Y=  -1.141127231736D-02 Z=  -2.077452753877D-03
 I=    2 X=   1.266269487963D-03 Y=   4.235979289357D-03 Z=  -1.439849486236D-03
 I=    3 X=  -7.093337636310D-04 Y=   4.243439955628D-03 Z=   1.783624522678D-03
 I=    4 X=   2.908216215255D-03 Y=   3.164898208134D-03 Z=   1.776248181522D-03
 I=    5 X=  -6.925239492605D-05 Y=  -2.330451357594D-04 Z=  -4.257046408983D-05
 FrcOut:
 IF    =    36 IFX   =    51 IFXYZ =    66
 IFFX  =    81 IFFFX =   201 IFLen =    15
 IFFLen=   120 IFFFLn=     0 IEDerv=   201
 LEDerv=   773 IFroze=  1163 ICStrt= 39591
 FCEst1:  Generated internal coordinate force constants:
                1             2             3             4             5 
      1  0.652454D+00
      2 -0.122123D+00  0.277949D+00
      3 -0.221751D-01 -0.746723D-01  0.675202D+00
      4 -0.999653D-01  0.108978D-01 -0.299887D-02  0.691160D-01
      5  0.108979D-01 -0.665666D-01 -0.100765D-01 -0.584834D-02  0.511960D-01
      6  0.000000D+00  0.000000D+00 -0.361033D+00  0.000000D+00  0.000000D+00
      7 -0.308018D+00  0.496510D-02  0.106532D+00  0.177380D-01  0.571494D-03
      8 -0.400388D-02 -0.665618D-01  0.142892D-01  0.125392D-02  0.435907D-02
      9  0.103536D+00  0.969669D-02 -0.152980D+00  0.346417D-01  0.111611D-02
     10 -0.236383D+00  0.105790D+00 -0.814421D-01  0.129135D-01 -0.615080D-02
     11  0.114760D+00 -0.138170D+00  0.701726D-01 -0.683312D-02  0.918834D-02
     12 -0.814446D-01  0.646889D-01 -0.153014D+00 -0.284046D-01  0.198576D-01
     13 -0.808796D-02  0.470031D-03  0.843647D-04  0.197822D-03  0.529784D-03
     14  0.468791D-03 -0.665079D-02  0.286995D-03  0.529776D-03  0.182314D-02
     15  0.840653D-04  0.286746D-03 -0.817600D-02 -0.323830D-02 -0.108972D-01
                6             7             8             9            10 
      6  0.361033D+00
      7  0.000000D+00  0.300395D+00
      8  0.000000D+00 -0.266456D-02  0.511938D-01
      9  0.000000D+00 -0.118423D+00 -0.520381D-02  0.129756D+00
     10  0.000000D+00 -0.884202D-02  0.148728D-01 -0.172682D-01  0.228444D+00
     11  0.000000D+00 -0.311342D-02  0.918662D-02 -0.608041D-02 -0.112937D+00
     12  0.000000D+00  0.111386D-01 -0.145234D-01  0.217534D-01  0.963702D-01
     13  0.000000D+00 -0.127284D-02 -0.945823D-02 -0.248581D-02  0.386712D-02
     14  0.000000D+00  0.241383D-03  0.182229D-02  0.471414D-03 -0.157449D-02
     15  0.000000D+00  0.753006D-03  0.543802D-02  0.147060D-02  0.234014D-02
               11            12            13            14            15 
     11  0.123112D+00
     12 -0.690601D-01  0.129789D+00
     13  0.812388D-02  0.234035D-02  0.529585D-02
     14 -0.331706D-02 -0.962929D-03  0.334543D-03  0.632241D-02
     15  0.496795D-02  0.147158D-02  0.610967D-04  0.204520D-03  0.523382D-02
 Quadrupole    = 3.21487100D-01-7.05368886D-01 3.83881786D-01
                -3.34784136D-01-6.07398214D-02-2.04735891D-01
 -------------------------------------------------------------------
 Center     Atomic                   Forces (Hartrees/Bohr)
 Number     Number              X              Y              Z
 -------------------------------------------------------------------
      1        6           0.003395900    0.011411272    0.002077453
      2        1          -0.001266269   -0.004235979    0.001439849
      3        1           0.000709334   -0.004243440   -0.001783625
      4        1          -0.002908216   -0.003164898   -0.001776248
      5        1           0.000069252    0.000233045    0.000042570
 -------------------------------------------------------------------
 Cartesian Forces:  Max     0.011411272 RMS     0.003751149
 From PutF, contents of force:
   1    0.1439849486D-02
   2    0.1444294661D-02
   3    0.1439053106D-02
   4    0.2578188550D-02
   5    0.2566541914D-02
   6   -0.7694775892D-02
   7    0.2785492195D-08
   8   -0.1437596962D-05
   9   -0.2468159826D-03
 -----------------------------------------------------------------------------------------------
                       Internal Coordinate Forces (Hartree/Bohr or radian)
  Cent   Atom   N1       Length/X         N2         Alpha/Y        N3         Beta/Z          J
 -----------------------------------------------------------------------------------------------
      1  C 
      2  H        1   0.001440(     1)
      3  H        1   0.001444(     2)      2   0.002578(     5)
      4  H        1   0.001439(     3)      2   0.002567(     6)      3  -0.007695(     8)     0
      5  H        1  -0.000247(     4)      2  -0.000001(     7)      3   0.000000(     9)     0
 -----------------------------------------------------------------------------------------------
 Internal  Forces:  Max     0.007694776 RMS     0.002957753
 Force constants in Cartesian coordinates: 
                1             2             3             4             5 
      1  0.652454D+00
      2 -0.122123D+00  0.277949D+00
      3 -0.221751D-01 -0.746723D-01  0.675202D+00
      4 -0.999653D-01  0.108978D-01 -0.299887D-02  0.691160D-01
      5  0.108979D-01 -0.665666D-01 -0.100765D-01 -0.584834D-02  0.511960D-01
      6  0.000000D+00  0.000000D+00 -0.361033D+00  0.000000D+00  0.000000D+00
      7 -0.308018D+00  0.496510D-02  0.106532D+00  0.177380D-01  0.571494D-03
      8 -0.400388D-02 -0.665618D-01  0.142892D-01  0.125392D-02  0.435907D-02
      9  0.103536D+00  0.969669D-02 -0.152980D+00  0.346417D-01  0.111611D-02
     10 -0.236383D+00  0.105790D+00 -0.814421D-01  0.129135D-01 -0.615080D-02
     11  0.114760D+00 -0.138170D+00  0.701726D-01 -0.683312D-02  0.918834D-02
     12 -0.814446D-01  0.646889D-01 -0.153014D+00 -0.284046D-01  0.198576D-01
     13 -0.808796D-02  0.470031D-03  0.843647D-04  0.197822D-03  0.529784D-03
     14  0.468791D-03 -0.665079D-02  0.286995D-03  0.529776D-03  0.182314D-02
     15  0.840653D-04  0.286746D-03 -0.817600D-02 -0.323830D-02 -0.108972D-01
                6             7             8             9            10 
      6  0.361033D+00
      7  0.000000D+00  0.300395D+00
      8  0.000000D+00 -0.266456D-02  0.511938D-01
      9  0.000000D+00 -0.118423D+00 -0.520381D-02  0.129756D+00
     10  0.000000D+00 -0.884202D-02  0.148728D-01 -0.172682D-01  0.228444D+00
     11  0.000000D+00 -0.311342D-02  0.918662D-02 -0.608041D-02 -0.112937D+00
     12  0.000000D+00  0.111386D-01 -0.145234D-01  0.217534D-01  0.963702D-01
     13  0.000000D+00 -0.127284D-02 -0.945823D-02 -0.248581D-02  0.386712D-02
     14  0.000000D+00  0.241383D-03  0.182229D-02  0.471414D-03 -0.157449D-02
     15  0.000000D+00  0.753006D-03  0.543802D-02  0.147060D-02  0.234014D-02
               11            12            13            14            15 
     11  0.123112D+00
     12 -0.690601D-01  0.129789D+00
     13  0.812388D-02  0.234035D-02  0.529585D-02
     14 -0.331706D-02 -0.962929D-03  0.334543D-03  0.632241D-02
     15  0.496795D-02  0.147158D-02  0.610967D-04  0.204520D-03  0.523382D-02
 FCInt: Cartesian first derivatives: 
                 1             2             3             4             5 
      1   0.000000D+00  0.000000D+00  0.000000D+00  0.000000D+00  0.000000D+00
      2   0.000000D+00  0.000000D+00  0.000000D+00  0.000000D+00  0.000000D+00
      3   0.000000D+00  0.000000D+00  0.000000D+00  0.000000D+00  0.000000D+00
 FCInt: Cartesian force constants: 
                1             2             3             4             5 
      1  0.652454D+00
      2 -0.122123D+00  0.277949D+00
      3 -0.221751D-01 -0.746723D-01  0.675202D+00
      4 -0.999653D-01  0.108978D-01 -0.299887D-02  0.691160D-01
      5  0.108979D-01 -0.665666D-01 -0.100765D-01 -0.584834D-02  0.511960D-01
      6  0.000000D+00  0.000000D+00 -0.361033D+00  0.000000D+00  0.000000D+00
      7 -0.308018D+00  0.496510D-02  0.106532D+00  0.177380D-01  0.571494D-03
      8 -0.400388D-02 -0.665618D-01  0.142892D-01  0.125392D-02  0.435907D-02
      9  0.103536D+00  0.969669D-02 -0.152980D+00  0.346417D-01  0.111611D-02
     10 -0.236383D+00  0.105790D+00 -0.814421D-01  0.129135D-01 -0.615080D-02
     11  0.114760D+00 -0.138170D+00  0.701726D-01 -0.683312D-02  0.918834D-02
     12 -0.814446D-01  0.646889D-01 -0.153014D+00 -0.284046D-01  0.198576D-01
     13 -0.808796D-02  0.470031D-03  0.843647D-04  0.197822D-03  0.529784D-03
     14  0.468791D-03 -0.665079D-02  0.286995D-03  0.529776D-03  0.182314D-02
     15  0.840653D-04  0.286746D-03 -0.817600D-02 -0.323830D-02 -0.108972D-01
                6             7             8             9            10 
      6  0.361033D+00
      7  0.000000D+00  0.300395D+00
      8  0.000000D+00 -0.266456D-02  0.511938D-01
      9  0.000000D+00 -0.118423D+00 -0.520381D-02  0.129756D+00
     10  0.000000D+00 -0.884202D-02  0.148728D-01 -0.172682D-01  0.228444D+00
     11  0.000000D+00 -0.311342D-02  0.918662D-02 -0.608041D-02 -0.112937D+00
     12  0.000000D+00  0.111386D-01 -0.145234D-01  0.217534D-01  0.963702D-01
     13  0.000000D+00 -0.127284D-02 -0.945823D-02 -0.248581D-02  0.386712D-02
     14  0.000000D+00  0.241383D-03  0.182229D-02  0.471414D-03 -0.157449D-02
     15  0.000000D+00  0.753006D-03  0.543802D-02  0.147060D-02  0.234014D-02
               11            12            13            14            15 
     11  0.123112D+00
     12 -0.690601D-01  0.129789D+00
     13  0.812388D-02  0.234035D-02  0.529585D-02
     14 -0.331706D-02 -0.962929D-03  0.334543D-03  0.632241D-02
     15  0.496795D-02  0.147158D-02  0.610967D-04  0.204520D-03  0.523382D-02
 Internal force constants: 
                1             2             3             4             5 
      1  0.361033D+00
      2  0.000000D+00  0.361033D+00
      3  0.000000D+00  0.000000D+00  0.361033D+00
      4  0.000000D+00  0.000000D+00  0.000000D+00  0.645900D-02
      5  0.000000D+00  0.000000D+00  0.000000D+00  0.000000D+00  0.287417D+00
      6  0.000000D+00  0.000000D+00  0.000000D+00  0.000000D+00  0.114183D+00
      7  0.000000D+00  0.000000D+00  0.000000D+00  0.000000D+00  0.232654D-01
      8  0.000000D+00  0.000000D+00  0.000000D+00  0.000000D+00  0.604007D-01
      9  0.000000D+00  0.000000D+00  0.000000D+00  0.000000D+00 -0.386485D-01
                6             7             8             9 
      6  0.287423D+00
      7  0.232826D-01  0.240505D+00
      8  0.216252D-01 -0.681750D-01  0.168634D+00
      9  0.386600D-01  0.142175D-04 -0.116582D+00  0.233412D+00
 Frcnst in PutFF: 
                1             2             3             4             5 
      1  0.361033D+00
      2  0.000000D+00  0.361033D+00
      3  0.000000D+00  0.000000D+00  0.361033D+00
      4  0.000000D+00  0.000000D+00  0.000000D+00  0.287417D+00
      5  0.000000D+00  0.000000D+00  0.000000D+00  0.114183D+00  0.287423D+00
      6  0.000000D+00  0.000000D+00  0.000000D+00  0.604007D-01  0.216252D-01
      7  0.000000D+00  0.000000D+00  0.000000D+00 -0.386485D-01  0.386600D-01
      8  0.000000D+00  0.000000D+00  0.000000D+00  0.232654D-01  0.232826D-01
      9  0.000000D+00  0.000000D+00  0.000000D+00  0.000000D+00  0.000000D+00
                6             7             8             9 
      6  0.168634D+00
      7 -0.116582D+00  0.233412D+00
      8 -0.681750D-01  0.142175D-04  0.240505D+00
      9  0.000000D+00  0.000000D+00  0.000000D+00  0.645900D-02
 Force constants in internal coordinates: 
                1             2             3             4             5 
      1  0.361033D+00
      2  0.000000D+00  0.361033D+00
      3  0.000000D+00  0.000000D+00  0.361033D+00
      4  0.000000D+00  0.000000D+00  0.000000D+00  0.645900D-02
      5  0.000000D+00  0.000000D+00  0.000000D+00  0.000000D+00  0.287417D+00
      6  0.000000D+00  0.000000D+00  0.000000D+00  0.000000D+00  0.114183D+00
      7  0.000000D+00  0.000000D+00  0.000000D+00  0.000000D+00  0.232654D-01
      8  0.000000D+00  0.000000D+00  0.000000D+00  0.000000D+00  0.604007D-01
      9  0.000000D+00  0.000000D+00  0.000000D+00  0.000000D+00 -0.386485D-01
                6             7             8             9 
      6  0.287423D+00
      7  0.232826D-01  0.240505D+00
      8  0.216252D-01 -0.681750D-01  0.168634D+00
      9  0.386600D-01  0.142175D-04 -0.116582D+00  0.233412D+00
 Final forces over variables, Energy=-4.03398509D+01:
  1.43984949D-03 1.44429466D-03 1.43905311D-03 2.57818855D-03
  2.56654191D-03-7.69477589D-03 2.78549220D-09-1.43759696D-06
 -2.46815983D-04

 GradGradGradGradGradGradGradGradGradGradGradGradGradGradGradGradGradGrad
 Berny optimization.
 Search for a local minimum.
 Step number   1 out of a maximum of   50
 All quantities printed in internal units (Hartrees-Bohrs-Radians)
 Second derivative matrix not updated -- first step.
 The second derivative matrix:
                          R1        R2        R3        A2        A3
           R1           0.36103
           R2           0.00000   0.36103
           R3           0.00000  -0.00000   0.36103
           A2           0.00000   0.00000  -0.00000   0.28742
           A3           0.00000  -0.00000  -0.00000   0.11418   0.28742
           D3           0.00000  -0.00000   0.00000   0.06040   0.02163
           DH1          0.00000   0.00000   0.00000  -0.03865   0.03866
           ANG1         0.00000  -0.00000  -0.00000   0.02327   0.02328
           BB           0.00000  -0.00000   0.00000   0.00000   0.00000
                          D3        DH1      ANG1       BB
           D3           0.16863
           DH1         -0.11658   0.23341
           ANG1        -0.06818   0.00001   0.24051
           BB           0.00000  -0.00000  -0.00000   0.00646
 ITU=  0
     Eigenvalues ---    0.05338   0.14844   0.24330   0.34985   0.36103
     Eigenvalues ---    0.36103   0.36103   0.422421000.00000
 RFO step:  Lambda=-9.04076545D-04 EMin= 5.33825055D-02
 Linear search not attempted -- first point.
 Variable       Old X    -DE/DX   Delta X   Delta X   Delta X     New X
                                 (Linear)    (Quad)   (Total)
    R1        2.03920   0.00144   0.00000   0.00398   0.00398   2.04318
    R2        2.03920   0.00144   0.00000   0.00399   0.00399   2.04319
    R3        2.03920   0.00144   0.00000   0.00398   0.00398   2.04318
    A2        2.04403   0.00258   0.00000   0.01888   0.01888   2.06291
    A3        2.04417   0.00257   0.00000   0.01861   0.01861   2.06278
    D3        3.71950  -0.00769   0.00000  -0.10272  -0.10272   3.61679
   DH1        1.85965   0.00000   0.00000  -0.05106  -0.05106   1.80859
   ANG1       1.74329  -0.00000   0.00000  -0.03262  -0.03262   1.71066
    BB        6.80301  -0.00025   0.00000   0.00000   0.00000   6.80301
         Item               Value     Threshold  Converged?
 Maximum Force            0.007695     0.000450     NO 
 RMS     Force            0.003136     0.000300     NO 
 Maximum Displacement     0.102716     0.001800     NO 
 RMS     Displacement     0.040787     0.001200     NO 
 Predicted change in Energy=-4.588048D-04
 GradGradGradGradGradGradGradGradGradGradGradGradGradGradGradGradGradGrad

 ---------------------------------------------------------------------------------------------------
                            Z-MATRIX (ANGSTROMS AND DEGREES)
   CD    Cent   Atom    N1       Length/X        N2       Alpha/Y        N3        Beta/Z          J
 ---------------------------------------------------------------------------------------------------
      1      1  C 
      2      2  H        1   1.081205(     1)
      3      3  H        1   1.081212(     2)      2  118.196(     5)
      4      4  H        1   1.081204(     3)      2  118.188(     6)      3  207.227(     8)      0
      5      5  H        1   3.600000(     4)      2   98.014(     7)      3  103.625(     9)      0
 ---------------------------------------------------------------------------------------------------
                         Z-Matrix orientation:                         
 ---------------------------------------------------------------------
 Center     Atomic      Atomic             Coordinates (Angstroms)
 Number     Number       Type             X           Y           Z
 ---------------------------------------------------------------------
      1          6           0        0.000000    0.000000    0.000000
      2          1           0        0.000000    0.000000    1.081205
      3          1           0        0.952912    0.000000   -0.510860
      4          1           0       -0.847386    0.435997   -0.510731
      5          1           0       -0.839731   -3.464531   -0.501872
 ---------------------------------------------------------------------
                    Distance matrix (angstroms):
                    1          2          3          4          5
     1  C    0.000000
     2  H    1.081205   0.000000
     3  H    1.081212   1.855455   0.000000
     4  H    1.081204   1.855375   1.852341   0.000000
     5  H    3.600000   3.900546   3.900849   3.900545   0.000000
 Symmetry turned off by external request.
 Stoichiometry    CH4
 Framework group  C1[X(CH4)]
 Deg. of freedom     9
 Full point group                 C1      NOp   1
 Rotational constants (GHZ):    145.8240756     35.5111865     35.4920750
 Standard basis: Aug-CC-pVTZ (5D, 7F)
   138 basis functions,   180 primitive gaussians,   155 cartesian basis functions
     5 alpha electrons        5 beta electrons
       nuclear repulsion energy        10.9548230304 Hartrees.
 NAtoms=    5 NActive=    5 NUniq=    5 SFac= 1.00D+00 NAtFMM=   60 NAOKFM=F Big=F
 Integral buffers will be    131072 words long.
 Raffenetti 2 integral format.
 Two-electron integral symmetry is turned off.
 Nuclear repulsion after empirical dispersion term =       10.9544476048 Hartrees.
 One-electron integrals computed using PRISM.
 NBasis=   138 RedAO= T EigKep=  1.09D-04  NBF=   138
 NBsUse=   138 1.00D-06 EigRej= -1.00D+00 NBFU=   138
 ExpMin= 2.53D-02 ExpMax= 8.24D+03 ExpMxC= 2.81D+02 IAcc=3 IRadAn=         5 AccDes= 0.00D+00
 Harris functional with IExCor= 4639 and IRadAn=       5 diagonalized for initial guess.
 HarFok:  IExCor= 4639 AccDes= 0.00D+00 IRadAn=         5 IDoV= 1 UseB2=F ITyADJ=14
 ICtDFT=  3500011 ScaDFX=  1.000000  1.000000  1.000000  1.000000
 FoFCou: FMM=F IPFlag=           0 FMFlag=      100000 FMFlg1=           0
         NFxFlg=           0 DoJE=T BraDBF=F KetDBF=T FulRan=T
         wScrn=  0.000000 ICntrl=     500 IOpCl=  0 I1Cent=   200000004 NGrid=           0
         NMat0=    1 NMatS0=      1 NMatT0=    0 NMatD0=    1 NMtDS0=    0 NMtDT0=    0
 Symmetry not used in FoFCou.
 Mixing orbitals, IMix= 1 IMixAn=  0 NRI=1 NE=    5 Coef=  7.07106781D-01  7.07106781D-01
 Mixing orbitals, IMix= 1 IMixAn=  0 NRI=1 NE=    5 Coef= -7.07106781D-01  7.07106781D-01
 Initial guess <Sx>= 0.0000 <Sy>= 0.0000 <Sz>= 0.0000 <S**2>= 1.0000 S= 0.6180
 Keep R1 and R2 ints in memory in canonical form, NReq=186088671.
 Requested convergence on RMS density matrix=1.00D-08 within 128 cycles.
 Requested convergence on MAX density matrix=1.00D-06.
 Requested convergence on             energy=1.00D-06.
 No special actions if energy rises.
 SCF Done:  E(UwB97XD) =  -40.3406021110     A.U. after   16 cycles
            NFock= 16  Conv=0.46D-08     -V/T= 2.0071
 <Sx>= 0.0000 <Sy>= 0.0000 <Sz>= 0.0000 <S**2>= 0.9973 S= 0.6168
 <L.S>=  0.00000000000    
 Annihilation of the first spin contaminant:
 S**2 before annihilation     0.9973,   after     0.0294
 DipInt: DoE/N= T T RetVal/Mat= T F Init=T NMatP=  1 IDeriv=0 Min/MaxMlt=  1  1
 Entering OneElI...
 Multipole integrals L=1 to 1 MinM= 0 MaxM= 0.
 Requested accuracy = 0.1000D-12
 PrsmSu:  NPrtUS=   1 ThrOK=F IAlg=1 NPAlg=1 LenDen=           0.
 Prism:   IPart=     0 DynPar=F LinDyn=F Incr=          12.
 PRISM was handed   419324420 working-precision words and  1273 shell-pairs
 IPart=  0 NShTot=        1273 NBatch=          38 AvBLen=        33.5
 PrSmSu:  NxtVal=             13.
 Entering OneElI...
 Calculate overlap and kinetic energy integrals
    NBasis = 155  MinDer = 1  MaxDer = 1
 Requested accuracy = 0.1000D-12
 PrsmSu:  NPrtUS=  32 ThrOK=T IAlg=1 NPAlg=1 LenDen=           0.
 Prism:   IPart=     0 DynPar=F LinDyn=F Incr=           1.
 PRISM was handed    13082724 working-precision words and  1275 shell-pairs
 PRISM was handed    13082724 working-precision words and  1275 shell-pairs
 PRISM was handed    13082724 working-precision words and  1275 shell-pairs
 PRISM was handed    13082724 working-precision words and  1275 shell-pairs
 PRISM was handed    13082724 working-precision words and  1275 shell-pairs
 PRISM was handed    13082724 working-precision words and  1275 shell-pairs
 PRISM was handed    13082724 working-precision words and  1275 shell-pairs
 PRISM was handed    13082724 working-precision words and  1275 shell-pairs
 PRISM was handed    13082724 working-precision words and  1275 shell-pairs
 PRISM was handed    13082724 working-precision words and  1275 shell-pairs
 PRISM was handed    13082724 working-precision words and  1275 shell-pairs
 PRISM was handed    13082724 working-precision words and  1275 shell-pairs
[...]
     3  H    0.014007   0.002690  -0.032082   0.002679   0.000842
     4  H    0.014046   0.002679   0.002679  -0.032114   0.000814
     5  H   -0.005125   0.000847   0.000842   0.000814  -0.998274
 Mulliken charges and spin densities:
               1          2
     1  C   -1.054761   1.036454
     2  H    0.350552  -0.011797
     3  H    0.350535  -0.011864
     4  H    0.350506  -0.011897
     5  H    0.003167  -1.000896
 Sum of Mulliken charges =  -0.00000  -0.00000
 Mulliken charges and spin densities with hydrogens summed into heavy atoms:
               1          2
     1  C   -0.000000  -0.000000
 APT charges:
               1
     1  C   -0.146866
     2  H    0.046660
     3  H    0.046308
     4  H    0.046321
     5  H    0.007576
 Sum of APT charges =   0.00000
 APT charges with hydrogens summed into heavy atoms:
               1
     1  C    0.000000
 Electronic spatial extent (au):  <R**2>=             79.4100
 Charge=             -0.0000 electrons
 Dipole moment (field-independent basis, Debye):
    X=             -0.0000    Y=              0.0143    Z=             -0.0000  Tot=              0.0143
 Quadrupole moment (field-independent basis, Debye-Ang):
   XX=             -8.6122   YY=            -10.5814   ZZ=             -8.6119
   XY=             -0.0059   XZ=              0.0001   YZ=             -0.0033
 Traceless Quadrupole moment (field-independent basis, Debye-Ang):
   XX=              0.6563   YY=             -1.3129   ZZ=              0.6566
   XY=             -0.0059   XZ=              0.0001   YZ=             -0.0033
 Octapole moment (field-independent basis, Debye-Ang**2):
  XXX=             -0.0150  YYY=             15.8528  ZZZ=              0.8969  XYY=             -0.0063
  XXY=              5.1221  XXZ=             -0.9297  XZZ=             -0.0052  YZZ=              5.1187
  YYZ=             -0.0095  XYZ=              0.0030
 Hexadecapole moment (field-independent basis, Debye-Ang**3):
 XXXX=            -16.9061 YYYY=           -127.4286 ZZZZ=            -16.9060 XXXY=              0.0547
 XXXZ=             -0.0002 YYYX=              0.0679 YYYZ=              0.1007 ZZZX=              0.0000
 ZZZY=              0.0927 XXYY=            -24.0425 XXZZ=             -5.6353 YYZZ=            -24.0426
 XXYZ=              0.0271 YYXZ=             -0.0000 ZZXY=              0.0182
 N-N= 1.098744630721D+01 E-N=-1.148609195872D+02  KE= 4.006267244412D+01
  Exact polarizability:  20.808  -0.001  24.025   0.000  -0.004  20.801
 Approx polarizability:  17.912  -0.004  17.326   0.000  -0.003  17.912
                          Isotropic Fermi Contact Couplings
        Atom                 a.u.       MegaHertz       Gauss      10(-4) cm-1
     1  C(13)              0.01678       9.43420       3.36636       3.14691
     2  H(1)              -0.01400     -31.28303     -11.16256     -10.43490
     3  H(1)              -0.01400     -31.28914     -11.16474     -10.43693
     4  H(1)              -0.01400     -31.28608     -11.16365     -10.43591
     5  H(1)              -0.29130    -651.04862    -232.31033    -217.16644
 --------------------------------------------------------
       Center         ----  Spin Dipole Couplings  ----
                      3XX-RR        3YY-RR        3ZZ-RR
 --------------------------------------------------------
     1   Atom       -0.564515      1.129095     -0.564580
     2   Atom       -0.074962     -0.002558      0.077519
     3   Atom        0.039396     -0.002545     -0.036852
     4   Atom        0.039355     -0.002509     -0.036847
     5   Atom       -0.004011      0.008022     -0.004011
 --------------------------------------------------------
                        XY            XZ            YZ
 --------------------------------------------------------
     1   Atom        0.005467      0.000010      0.003161
     2   Atom        0.000264      0.000003     -0.002207
     3   Atom       -0.001783     -0.066020      0.001342
     4   Atom        0.001560      0.066034      0.000907
     5   Atom       -0.000018      0.000000     -0.000025
 --------------------------------------------------------


 ---------------------------------------------------------------------------------
              Anisotropic Spin Dipole Couplings in Principal Axis System
 ---------------------------------------------------------------------------------

       Atom             a.u.   MegaHertz   Gauss  10(-4) cm-1        Axes

              Baa    -0.5646   -75.762   -27.034   -25.272  0.0131 -0.0019  0.9999
     1 C(13)  Bbb    -0.5645   -75.755   -27.031   -25.269  0.9999 -0.0032 -0.0131
              Bcc     1.1291   151.517    54.065    50.541  0.0032  1.0000  0.0019
 
              Baa    -0.0750   -39.997   -14.272   -13.341  1.0000 -0.0036 -0.0001
     2 H(1)   Bbb    -0.0026    -1.397    -0.498    -0.466  0.0036  0.9996  0.0275
              Bcc     0.0776    41.393    14.770    13.807 -0.0000 -0.0275  0.9996
 
              Baa    -0.0750   -39.998   -14.272   -13.342  0.4999 -0.0037  0.8661
     3 H(1)   Bbb    -0.0026    -1.390    -0.496    -0.464  0.0258  0.9996 -0.0106
              Bcc     0.0776    41.388    14.768    13.806  0.8657 -0.0276 -0.4998
 
              Baa    -0.0750   -40.008   -14.276   -13.345 -0.5001 -0.0001  0.8660
     4 H(1)   Bbb    -0.0025    -1.360    -0.485    -0.454 -0.0196  0.9997 -0.0112
              Bcc     0.0775    41.368    14.761    13.799  0.8657  0.0225  0.5000
 
              Baa    -0.0040    -2.140    -0.764    -0.714 -0.4568  0.0011  0.8896
     5 H(1)   Bbb    -0.0040    -2.140    -0.764    -0.714  0.8896  0.0023  0.4568
              Bcc     0.0080     4.280     1.527     1.428 -0.0015  1.0000 -0.0021
 

 ---------------------------------------------------------------------------------

 Calling FoFJK, ICntrl=    100127 FMM=F ISym2X=0 I1Cent= 0 IOpClX= 1 NMat=1 NMatS=1 NMatT=0.
 Full mass-weighted force constant matrix:
 Low frequencies --- -171.6386  -11.6419    0.0005    0.0011    0.0012   30.0209
 Low frequencies ---   32.8656   91.3917  117.4669
 ******    1 imaginary frequencies (negative Signs) ****** 
 Diagonal vibrational polarizability:
        0.0539684       9.2534971       0.0519458
 Harmonic frequencies (cm**-1), IR intensities (KM/Mole), Raman scattering
 activities (A**4/AMU), depolarization ratios for plane and unpolarized
 incident light, reduced masses (AMU), force constants (mDyne/A),
 and normal coordinates:
                      1                      2                      3
                      A                      A                      A
 Frequencies --   -171.6240                91.2197               115.5922
 Red. masses --      1.0646                 1.0138                 1.0139
 Frc consts  --      0.0185                 0.0050                 0.0080
 IR Inten    --   1.341                 0.1476E-02             0.7759E-02
  Atom  AN      X      Y      Z        X      Y      Z        X      Y      Z
     1   6     0.00  -0.07   0.00     0.02   0.00  -0.00     0.00   0.00   0.02
     2   1     0.00  -0.04   0.00     0.02  -0.01  -0.00     0.00   0.76   0.02
     3   1     0.00  -0.05   0.00     0.02   0.67  -0.00    -0.00  -0.38   0.02
     4   1     0.00  -0.05   0.00     0.02  -0.66  -0.00    -0.00  -0.40   0.02
     5   1    -0.00   0.99  -0.00    -0.34  -0.00   0.00    -0.00  -0.01  -0.34
                      4                      5                      6
                      A                      A                      A
 Frequencies --    527.4593              1409.6249              1409.7144
 Red. masses --      1.2245                 1.1019                 1.1019
 Frc consts  --      0.2007                 1.2900                 1.2902
 IR Inten    --   82.87                  2.888                  2.879    
  Atom  AN      X      Y      Z        X      Y      Z        X      Y      Z
     1   6     0.00   0.14   0.00    -0.09   0.00   0.03     0.03  -0.00   0.09
     2   1    -0.00  -0.58  -0.00     0.76  -0.00   0.03    -0.28  -0.00   0.07
     3   1    -0.00  -0.57  -0.00     0.00   0.00   0.15    -0.41   0.00  -0.69
     4   1    -0.00  -0.57  -0.00     0.27  -0.00  -0.56     0.31   0.00  -0.42
     5   1     0.00   0.04   0.00    -0.00  -0.00   0.00     0.00  -0.00   0.00
                      7                      8                      9
                      A                      A                      A
 Frequencies --   3122.1158              3303.2189              3303.4546
 Red. masses --      1.0078                 1.1186                 1.1185
 Frc consts  --      5.7881                 7.1909                 7.1918
 IR Inten    --  0.2701E-01              4.111                  4.075    
  Atom  AN      X      Y      Z        X      Y      Z        X      Y      Z
     1   6    -0.00  -0.00  -0.00    -0.01  -0.00   0.10     0.10  -0.00   0.01
     2   1    -0.00  -0.00   0.58    -0.00   0.00  -0.81     0.02  -0.00  -0.09
     3   1     0.50  -0.00  -0.29     0.42  -0.00  -0.23    -0.56   0.00   0.34
     4   1    -0.50   0.00  -0.29    -0.29   0.00  -0.15    -0.64   0.00  -0.38
     5   1     0.00   0.00  -0.00     0.00   0.00  -0.00    -0.00   0.00  -0.00

 -------------------
 - Thermochemistry -
 -------------------
 Temperature   298.150 Kelvin.  Pressure   1.00000 Atm.
 Atom     1 has atomic number  6 and mass  12.00000
 Atom     2 has atomic number  1 and mass   1.00783
 Atom     3 has atomic number  1 and mass   1.00783
 Atom     4 has atomic number  1 and mass   1.00783
 Atom     5 has atomic number  1 and mass   1.00783
 Molecular mass:    16.03130 amu.
 Principal axes and moments of inertia in atomic units:
                           1         2         3
     Eigenvalues --    12.55346  49.99733  49.99790
           X           -0.00167   0.34163   0.93983
           Y            1.00000   0.00263   0.00082
           Z           -0.00220   0.93983  -0.34163
 This molecule is an asymmetric top.
 Rotational symmetry number  1.
 Rotational temperatures (Kelvin)      6.89960     1.73237     1.73235
 Rotational constants (GHZ):         143.76448    36.09675    36.09634
    1 imaginary frequencies ignored.
 Zero-point vibrational energy      79446.4 (Joules/Mol)
                                   18.98814 (Kcal/Mol)
 Warning -- explicit consideration of   3 degrees of freedom as
           vibrations may cause significant error
 Vibrational temperatures:    131.24   166.31   758.90  2028.13  2028.26
          (Kelvin)           4492.02  4752.59  4752.93
 
 Zero-point correction=                           0.030260 (Hartree/Particle)
 Thermal correction to Energy=                    0.034768
 Thermal correction to Enthalpy=                  0.035712
 Thermal correction to Gibbs Free Energy=         0.007306
 Sum of electronic and zero-point Energies=            -40.311525
 Sum of electronic and thermal Energies=               -40.307017
 Sum of electronic and thermal Enthalpies=             -40.306073
 Sum of electronic and thermal Free Energies=          -40.334479
 
                     E (Thermal)             CV                S
                      KCal/Mol        Cal/Mol-Kelvin    Cal/Mol-Kelvin
 Total                   21.817             11.248             59.786
 Electronic               0.000              0.000              0.000
 Translational            0.889              2.981             34.261
 Rotational               0.889              2.981             18.091
 Vibrational             20.040              5.286              7.434
 Vibration     1          0.602              1.955              3.634
 Vibration     2          0.608              1.936              3.173
 Vibration     3          0.882              1.189              0.593
                       Q            Log10(Q)             Ln(Q)
 Total Bot       0.436119D-03         -3.360395         -7.737595
 Total V=0       0.361405D+11         10.557995         24.310681
 Vib (Bot)       0.862024D-13        -13.064480        -30.082078
 Vib (Bot)    1  0.225347D+01          0.352852          0.812472
 Vib (Bot)    2  0.176969D+01          0.247897          0.570805
 Vib (Bot)    3  0.303923D+00         -0.517236         -1.190980
 Vib (V=0)       0.714347D+01          0.853909          1.966198
 Vib (V=0)    1  0.280828D+01          0.448440          1.032571
 Vib (V=0)    2  0.233897D+01          0.369024          0.849710
 Vib (V=0)    3  0.108512D+01          0.035479          0.081694
 Electronic      0.100000D+01          0.000000          0.000000
 Translational   0.252295D+07          6.401908         14.740939
 Rotational      0.200529D+04          3.302177          7.603544
 -------------------------------------------------------------------
 Center     Atomic                   Forces (Hartrees/Bohr)
 Number     Number              X              Y              Z
 -------------------------------------------------------------------
      1        6           0.000012450   -0.000180057    0.000007030
      2        1          -0.000006467    0.000000239   -0.000000025
      3        1          -0.000007406   -0.000000749   -0.000005231
      4        1           0.000002403   -0.000003621   -0.000000524
      5        1          -0.000000980    0.000184188   -0.000001250
 -------------------------------------------------------------------
 Cartesian Forces:  Max     0.000184188 RMS     0.000066682
 -----------------------------------------------------------------------------------------------
                       Internal Coordinate Forces (Hartree/Bohr or radian)
  Cent   Atom   N1       Length/X         N2         Alpha/Y        N3         Beta/Z          J
 -----------------------------------------------------------------------------------------------
      1  C 
      2  H        1  -0.000000(     1)
      3  H        1  -0.000004(     2)      2   0.000017(     5)
      4  H        1  -0.000002(     3)      2   0.000003(     6)      3  -0.000006(     8)     0
      5  H        1  -0.000184(     4)      2   0.000006(     7)      3   0.000005(     9)     0
 -----------------------------------------------------------------------------------------------
 Internal  Forces:  Max     0.000184191 RMS     0.000061779

 GradGradGradGradGradGradGradGradGradGradGradGradGradGradGradGradGradGrad
 Berny optimization.
 Search for a local minimum.
 Step number   1 out of a maximum of    2
 All quantities printed in internal units (Hartrees-Bohrs-Radians)
 Second derivative matrix not updated -- analytic derivatives used.
 The second derivative matrix:
                          R1        R2        R3        A2        A3
           R1           0.37163
           R2           0.00004   0.37172
           R3           0.00003   0.00004   0.37173
           A2           0.01584   0.00008  -0.01587   0.18899
           A3           0.01584  -0.01587   0.00008   0.09451   0.18898
           D3           0.00001  -0.00008  -0.00017   0.00056   0.00053
           DH1         -0.00000  -0.00013   0.00013  -0.00005   0.00005
           ANG1        -0.00014   0.00006   0.00006  -0.00010  -0.00010
           BB          -0.00001  -0.00001  -0.00002  -0.00000   0.00000
                          D3        DH1      ANG1       BB
           D3           0.00943
           DH1         -0.00065   0.00130
           ANG1        -0.00038   0.00000   0.00117
           BB           0.00026   0.00001  -0.00007  -0.00104
 ITU=  0
     Eigenvalues ---    0.00115   0.00125   0.00950   0.09355   0.27567
     Eigenvalues ---    0.37177   0.37260   0.379461000.00000
 Angle between quadratic step and forces=  64.42 degrees.
 Linear search not attempted -- first point.
 Variable       Old X    -DE/DX   Delta X   Delta X   Delta X     New X
                                 (Linear)    (Quad)   (Total)
    R1        2.03765  -0.00000   0.00000  -0.00000  -0.00000   2.03765
    R2        2.03768  -0.00000   0.00000  -0.00001  -0.00001   2.03767
    R3        2.03767  -0.00000   0.00000  -0.00000  -0.00000   2.03767
    A2        2.09435   0.00002   0.00000   0.00011   0.00011   2.09446
    A3        2.09450   0.00000   0.00000  -0.00004  -0.00004   2.09446
    D3        3.14801  -0.00001   0.00000  -0.00018  -0.00018   3.14783
   DH1        1.56982   0.00001   0.00000   0.00409   0.00409   1.57392
   ANG1       1.56918   0.00001   0.00000   0.00547   0.00547   1.57465
    BB        6.80301  -0.00018   0.00000   0.00000   0.00000   6.80301
         Item               Value     Threshold  Converged?
 Maximum Force            0.000017     0.000450     YES
 RMS     Force            0.000007     0.000300     YES
 Maximum Displacement     0.005466     0.001800     NO 
 RMS     Displacement     0.002277     0.001200     NO 
 Predicted change in Energy=-3.033337D-08
 GradGradGradGradGradGradGradGradGradGradGradGradGradGradGradGradGradGrad


 Test job not archived.
 1\1\GINC-NODE-6-11\Freq\UwB97XD\Aug-CC-pVTZ\C1H4\CAVALLOTTI\03-Jun-202
 3\1\\#N Geom=AllCheck Guess=TCheck SCRF=Check Test GenChk UwB97XD/Aug-
 CC-pVTZ Freq\\geom 0\\0,1\C\H,1,R1\H,1,R2,2,A2\H,1,R3,2,A3,3,D3,0\H,1,
 BB,2,ANG1,3,DH1,0\\R1=1.07827778\R2=1.07829291\R3=1.07828815\A2=119.99
 744373\A3=120.00578464\D3=180.36762675\DH1=89.94430111\ANG1=89.9075680
 1\BB=3.6\\Version=EM64L-G09RevD.01\HF=-40.3417846\S2=0.997996\S2-1=0.\
 S2A=0.031379\RMSD=3.070e-09\RMSF=6.668e-05\ZeroPoint=0.0302595\Thermal
 =0.0347677\Dipole=-0.000008,0.0056227,-0.0000083\DipoleDeriv=0.016964,
 -0.0015192,0.0000082,-0.0014332,-0.4749772,-0.0007017,0.0000079,-0.000
 67,0.0174141,0.0436708,0.0003537,-0.0000182,0.0003298,0.1506519,0.0010
 594,0.0000082,0.0031272,-0.0543414,-0.0297815,0.0029151,0.0419739,0.00
 10888,0.1496661,-0.0002351,0.0417912,-0.0012758,0.0190398,-0.0297312,-
 0.0017351,-0.041971,0.0000052,0.1496373,0.0000677,-0.0418145,-0.000966
 5,0.0190584,-0.0011221,-0.0000145,0.0000071,0.0000094,0.0250219,-0.000
 1904,0.0000073,-0.0002149,-0.0011708\Polar=20.8084673,-0.0013483,24.02
 49897,0.0002733,-0.0042825,20.8005686\PG=C01 [X(C1H4)]\NImag=1\\0.6196
 3279,-0.00190838,0.02364057,0.00002378,-0.00113018,0.61961976,-0.05486
 128,0.00014691,-0.00000059,0.04551409,0.00014739,-0.00851423,-0.000012
 74,-0.00013582,0.00328773,0.00000233,0.00010692,-0.35815199,-0.0000044
 9,-0.00010250,0.37162876,-0.28236710,0.00017255,0.13140108,0.00467634,
 0.00001658,-0.00385515,0.29014635,0.00006113,-0.00831142,0.00013633,0.
 00002224,0.00270137,0.00000292,-0.00016343,0.00302866,0.13143126,0.000
 07827,-0.13067947,0.02358229,0.00001656,-0.00674975,-0.14126628,-0.000
 06545,0.12709540,-0.28232882,0.00159046,-0.13142408,0.00467888,-0.0000
 2824,0.00385727,-0.01246972,0.00013508,-0.01373472,0.29010530,0.001700
 17,-0.00832494,0.00099339,-0.00003243,0.00269800,-0.00001765,-0.000038
 59,0.00273462,-0.00002174,-0.00168311,0.00304011,-0.13145719,0.0009323
 0,-0.13071927,-0.02357696,0.00016618,-0.00674713,0.01373135,-0.0001056
 4,0.01033565,0.14129021,-0.00098552,0.12713242,-0.00007559,-0.00000153
 ,-0.00000019,-0.00000804,0.00000009,0.00000004,0.00001413,-0.00005502,
 -0.00001254,0.00001436,0.00005396,0.00001259,0.00005514,-0.00000030,0.
 00151002,0.00001320,-0.00000090,-0.00017286,0.00001030,0.00001289,-0.0
 0015323,-0.00000764,-0.00001419,-0.00014778,-0.00000732,0.00000250,-0.
 00103615,-0.00000018,0.00001269,-0.00006903,-0.00000025,-0.00006750,0.
 00002011,-0.00001099,0.00003184,-0.00000183,0.00001133,0.00003151,-0.0
 0000167,0.00000010,-0.00000854,0.00005242\\-0.00001245,0.00018006,-0.0
 0000703,0.00000647,-0.00000024,0.00000003,0.00000741,0.00000075,0.0000
 0523,-0.00000240,0.00000362,0.00000052,0.00000098,-0.00018419,0.000001
 25\\\@


 The mind is not a vessel to be filled but a fire to be kindled.
                                  -- Plutarch
 Job cpu time:       0 days  0 hours  7 minutes 24.0 seconds.
 File lengths (MBytes):  RWF=     66 Int=      0 D2E=      0 Chk=      3 Scr=      1
 Normal termination of Gaussian 09 at Sat Jun  3 08:54:47 2023.
