 Entering Gaussian System, Link 0=g09
 Input=geom.com
 Output=geom.log
 Initial command:
 /software/cinetica/g09d1/g09d01/d01/build-node-6-2-59348/src/main/l1.exe "/scratch/cc/140717/Gau-181094.inp" -scrdir="/scratch/cc/140717/"
 Entering Link 1 = /software/cinetica/g09d1/g09d01/d01/build-node-6-2-59348/src/main/l1.exe PID=    181095.
  
 Copyright (c) 1988,1990,1992,1993,1995,1998,2003,2009,2013,
            Gaussian, Inc.  All Rights Reserved.
  
 This is part of the Gaussian(R) 09 program.  It is based on
 the Gaussian(R) 03 system (copyright 2003, Gaussian, Inc.),
 the Gaussian(R) 98 system (copyright 1998, Gaussian, Inc.),
 the Gaussian(R) 94 system (copyright 1995, Gaussian, Inc.),
 the Gaussian 92(TM) system (copyright 1992, Gaussian, Inc.),
 the Gaussian 90(TM) system (copyright 1990, Gaussian, Inc.),
 the Gaussian 88(TM) system (copyright 1988, Gaussian, Inc.),
 the Gaussian 86(TM) system (copyright 1986, Carnegie Mellon
 University), and the Gaussian 82(TM) system (copyright 1983,
 Carnegie Mellon University). Gaussian is a federally registered
 trademark of Gaussian, Inc.
  
 This software contains proprietary and confidential information,
 including trade secrets, belonging to Gaussian, Inc.
  
 This software is provided under written license and may be
 used, copied, transmitted, or stored only in accord with that
 written license.
  
 The following legend is applicable only to US Government
 contracts under FAR:
  
                    RESTRICTED RIGHTS LEGEND
  
 Use, reproduction and disclosure by the US Government is
 subject to restrictions as set forth in subparagraphs (a)
 and (c) of the Commercial Computer Software - Restricted
 Rights clause in FAR 52.227-19.
  
 Gaussian, Inc.
 340 Quinnipiac St., Bldg. 40, Wallingford CT 06492
  
  
 ---------------------------------------------------------------
 Warning -- This program may not be used in any manner that
 competes with the business of Gaussian, Inc. or will provide
 assistance to any competitor of Gaussian, Inc.  The licensee
 of this program is prohibited from giving any competitor of
 Gaussian, Inc. access to this program.  By using this program,
 the user acknowledges that Gaussian, Inc. is engaged in the
 business of creating and licensing software in the field of
 computational chemistry and represents and warrants to the
 licensee that it is not a competitor of Gaussian, Inc. and that
 it will not use this program in any manner prohibited above.
 ---------------------------------------------------------------
  

 Cite this work as:
 Gaussian 09, Revision D.01,
 M. J. Frisch, G. W. Trucks, H. B. Schlegel, G. E. Scuseria, 
 M. A. Robb, J. R. Cheeseman, G. Scalmani, V. Barone, B. Mennucci, 
 G. A. Petersson, H. Nakatsuji, M. Caricato, X. Li, H. P. Hratchian, 
 A. F. Izmaylov, J. Bloino, G. Zheng, J. L. Sonnenberg, M. Hada, 
 M. Ehara, K. Toyota, R. Fukuda, J. Hasegawa, M. Ishida, T. Nakajima, 
 Y. Honda, O. Kitao, H. Nakai, T. Vreven, J. A. Montgomery, Jr., 
 J. E. Peralta, F. Ogliaro, M. Bearpark, J. J. Heyd, E. Brothers, 
 K. N. Kudin, V. N. Staroverov, T. Keith, R. Kobayashi, J. Normand, 
 K. Raghavachari, A. Rendell, J. C. Burant, S. S. Iyengar, J. Tomasi, 
 M. Cossi, N. Rega, J. M. Millam, M. Klene, J. E. Knox, J. B. Cross, 
 V. Bakken, C. Adamo, J. Jaramillo, R. Gomperts, R. E. Stratmann, 
 O. Yazyev, A. J. Austin, R. Cammi, C. Pomelli, J. W. Ochterski, 
 R. L. Martin, K. Morokuma, V. G. Zakrzewski, G. A. Voth, 
 P. Salvador, J. J. Dannenberg, S. Dapprich, A. D. Daniels, 
 O. Farkas, J. B. Foresman, J. V. Ortiz, J. Cioslowski, 
 and D. J. Fox, Gaussian, Inc., Wallingford CT, 2013.
 
 ******************************************
 Gaussian 09:  EM64L-G09RevD.01 24-Apr-2013
                 3-Jun-2023 
 ******************************************
 %mem=400MW
 %chk=tmp
 %NProcShared= 32
 Will use up to   32 processors via shared memory.
 ----------------------------------------------------------------------
 # uwb97xd/aug-cc-pvtz opt=(noeig,intern,maxcyc=50) # int=ultrafine nos
 ym iop(7/33=1)
 ----------------------------------------------------------------------
 1/6=50,10=7,11=1,14=-1,18=40,26=4,38=1/1,3;
 2/12=2,15=1,17=6,18=5,29=3,40=1/2;
 3/5=16,6=1,7=10,11=2,16=1,25=1,30=1,71=1,74=-58,75=-5,116=2/1,2,3;
 4//1;
 5/5=2,38=5/2;
 6/7=2,8=2,9=2,10=2,28=1/1;
 7/29=1,30=1,33=1/1,2,3,16;
 1/6=50,10=7,11=1,14=-1,18=40,26=4/3(2);
 2/15=1,29=3/2;
 99//99;
 2/15=1,29=3/2;
 3/5=16,6=1,7=10,11=2,16=1,25=1,30=1,71=1,74=-58,75=-5,116=2/1,2,3;
 4/5=5,16=3,69=1/1;
 5/5=2,38=5/2;
 7/30=1,33=1/1,2,3,16;
 1/6=50,11=1,14=-1,18=40,26=4/3(-5);
 2/15=1,29=3/2;
 6/7=2,8=2,9=2,10=2,19=2,28=1/1;
 99/9=1/99;
 ------
 geom 0
 ------
 Symbolic Z-matrix:
 Charge =  0 Multiplicity = 3
 C1
 H2                   C1   R1
 H3                   C1   R2       H2   A2
 H4                   C1   R3       H2   A3       H3   D3       0
 H21                  1    rts      2    aabs1    3    babs1    0
       Variables:
  BABS1                89.7682                   
  AABS1                89.7929                   
       Constants:
  R3                    1.0782                   
  A2                  119.9721                   
  A3                  120.0207                   
  D3                  179.8076                   
  R2                    1.0782                   
  R1                    1.0782                   
  RTS                  10.                       
 

 GradGradGradGradGradGradGradGradGradGradGradGradGradGradGradGradGradGrad
 Berny optimization.
 Initialization pass.
                       ----------------------------
                       !    Initial Parameters    !
                       ! (Angstroms and Degrees)  !
 ----------------------                            ----------------------
 !      Name          Value   Derivative information (Atomic Units)     !
 ------------------------------------------------------------------------
 !      BABS1       89.7682   estimate D2E/DX2                          !
 !      AABS1       89.7929   estimate D2E/DX2                          !
 !       R3          1.0782   Frozen                                    !
 !       A2        119.9721   Frozen                                    !
 !       A3        120.0207   Frozen                                    !
 !       D3        179.8076   Frozen                                    !
 !       R2          1.0782   Frozen                                    !
 !       R1          1.0782   Frozen                                    !
 !       RTS         10.0     Frozen                                    !
 ------------------------------------------------------------------------
 Trust Radius=3.00D-01 FncErr=1.00D-07 GrdErr=1.00D-06
 Number of steps in this run=     50 maximum allowed number of steps=    100.
 GradGradGradGradGradGradGradGradGradGradGradGradGradGradGradGradGradGrad

 ---------------------------------------------------------------------------------------------------
                            Z-MATRIX (ANGSTROMS AND DEGREES)
   CD    Cent   Atom    N1       Length/X        N2       Alpha/Y        N3        Beta/Z          J
 ---------------------------------------------------------------------------------------------------
      1      1  C 
      2      2  H        1   1.078200(     1)
      3      3  H        1   1.078200(     2)      2  119.972(     5)
      4      4  H        1   1.078200(     3)      2  120.021(     6)      3  179.808(     8)      0
      5      5  H        1  10.000000(     4)      2   89.793(     7)      3   89.768(     9)      0
 ---------------------------------------------------------------------------------------------------
                         Z-Matrix orientation:                         
 ---------------------------------------------------------------------
 Center     Atomic      Atomic             Coordinates (Angstroms)
 Number     Number       Type             X           Y           Z
 ---------------------------------------------------------------------
      1          6           0        0.000000    0.000000    0.000000
      2          1           0        0.000000    0.000000    1.078200
      3          1           0        0.934011    0.000000   -0.538645
      4          1           0       -0.933548   -0.003135   -0.539437
      5          1           0        0.040456   -9.999853    0.036146
 ---------------------------------------------------------------------
                    Distance matrix (angstroms):
                    1          2          3          4          5
     1  C    0.000000
     2  H    1.078200   0.000000
     3  H    1.078200   1.867235   0.000000
     4  H    1.078200   1.867692   1.867562   0.000000
     5  H   10.000000  10.054082  10.056136  10.060534   0.000000
 Symmetry turned off by external request.
 Stoichiometry    CH4(3)
 Framework group  C1[X(CH4)]
 Deg. of freedom     9
 Full point group                 C1      NOp   1
 Rotational constants (GHZ):    143.7855816      5.2534388      5.2533840
 Standard basis: Aug-CC-pVTZ (5D, 7F)
   138 basis functions,   180 primitive gaussians,   155 cartesian basis functions
     6 alpha electrons        4 beta electrons
       nuclear repulsion energy        10.1597906508 Hartrees.
 NAtoms=    5 NActive=    5 NUniq=    5 SFac= 1.00D+00 NAtFMM=   60 NAOKFM=F Big=F
 Integral buffers will be    131072 words long.
 Raffenetti 2 integral format.
 Two-electron integral symmetry is turned off.
 Nuclear repulsion after empirical dispersion term =       10.1595327731 Hartrees.
 One-electron integrals computed using PRISM.
 NBasis=   138 RedAO= T EigKep=  1.02D-04  NBF=   138
 NBsUse=   138 1.00D-06 EigRej= -1.00D+00 NBFU=   138
 ExpMin= 2.53D-02 ExpMax= 8.24D+03 ExpMxC= 2.81D+02 IAcc=3 IRadAn=         5 AccDes= 0.00D+00
 Harris functional with IExCor= 4639 and IRadAn=       5 diagonalized for initial guess.
 HarFok:  IExCor= 4639 AccDes= 0.00D+00 IRadAn=         5 IDoV= 1 UseB2=F ITyADJ=14
 ICtDFT=  3500011 ScaDFX=  1.000000  1.000000  1.000000  1.000000
 FoFCou: FMM=F IPFlag=           0 FMFlag=      100000 FMFlg1=           0
         NFxFlg=           0 DoJE=T BraDBF=F KetDBF=T FulRan=T
         wScrn=  0.000000 ICntrl=     500 IOpCl=  0 I1Cent=   200000004 NGrid=           0
         NMat0=    1 NMatS0=      1 NMatT0=    0 NMatD0=    1 NMtDS0=    0 NMtDT0=    0
 Symmetry not used in FoFCou.
 Initial guess <Sx>= 0.0000 <Sy>= 0.0000 <Sz>= 1.0000 <S**2>= 2.0000 S= 1.0000
 Keep R1 and R2 ints in memory in canonical form, NReq=186081527.
 Requested convergence on RMS density matrix=1.00D-08 within 128 cycles.
 Requested convergence on MAX density matrix=1.00D-06.
 Requested convergence on             energy=1.00D-06.
 No special actions if energy rises.
 SCF Done:  E(UwB97XD) =  -40.3419793192     A.U. after   10 cycles
            NFock= 10  Conv=0.32D-08     -V/T= 2.0069
 <Sx>= 0.0000 <Sy>= 0.0000 <Sz>= 1.0000 <S**2>= 2.0040 S= 1.0013
 <L.S>=  0.00000000000    
 Annihilation of the first spin contaminant:
 S**2 before annihilation     2.0040,   after     2.0000

 **********************************************************************

            Population analysis using the SCF density.

 **********************************************************************

 Alpha  occ. eigenvalues --  -10.29562  -0.78676  -0.50921  -0.50913  -0.40605
 Alpha  occ. eigenvalues --   -0.31505
 Alpha virt. eigenvalues --    0.02992   0.04910   0.04911   0.05385   0.09145
 Alpha virt. eigenvalues --    0.13054   0.13056   0.13265   0.19415   0.19415
 Alpha virt. eigenvalues --    0.19422   0.20090   0.20090   0.21811   0.25913
 Alpha virt. eigenvalues --    0.25915   0.32005   0.32377   0.32378   0.34200
 Alpha virt. eigenvalues --    0.35547   0.37721   0.39553   0.39557   0.40317
 Alpha virt. eigenvalues --    0.40318   0.41994   0.42090   0.42090   0.56864
 Alpha virt. eigenvalues --    0.56885   0.68790   0.68804   0.75388   0.75392
 Alpha virt. eigenvalues --    0.75929   0.75929   0.75931   0.75931   0.75931
 Alpha virt. eigenvalues --    0.77395   0.77395   0.80511   0.83416   0.89500
 Alpha virt. eigenvalues --    0.89899   0.89899   0.89906   0.93202   0.93624
 Alpha virt. eigenvalues --    0.93626   0.94811   0.94813   1.02407   1.02419
 Alpha virt. eigenvalues --    1.03795   1.06031   1.08567   1.08580   1.09146
 Alpha virt. eigenvalues --    1.09149   1.23460   1.35214   1.35215   1.47354
 Alpha virt. eigenvalues --    1.49127   1.49765   1.49766   1.50695   1.55624
 Alpha virt. eigenvalues --    1.55636   1.62136   1.78129   1.78139   1.93869
 Alpha virt. eigenvalues --    1.93879   1.96279   2.05014   2.05025   2.06421
 Alpha virt. eigenvalues --    2.34943   2.69587   2.73995   2.73997   2.97398
 Alpha virt. eigenvalues --    2.98723   2.98729   3.29166   3.34251   3.34264
 Alpha virt. eigenvalues --    3.37026   3.37027   3.42812   3.42821   3.43050
 Alpha virt. eigenvalues --    3.47026   3.64228   3.64228   3.64228   3.64228
 Alpha virt. eigenvalues --    3.64228   3.65813   3.70490   3.73405   3.73408
 Alpha virt. eigenvalues --    3.79938   3.79938   3.79940   3.99786   3.99791
 Alpha virt. eigenvalues --    4.14369   4.14399   4.14640   4.39971   4.56669
 Alpha virt. eigenvalues --    4.56671   4.59553   4.59557   4.79077   4.79536
 Alpha virt. eigenvalues --    5.04723   5.04779   5.09711   5.09738   5.17649
 Alpha virt. eigenvalues --    5.17663   5.28074   6.05838   6.18383   6.18421
 Alpha virt. eigenvalues --    6.40450  15.90297
  Beta  occ. eigenvalues --  -10.28441  -0.74176  -0.49696  -0.49688
  Beta virt. eigenvalues --   -0.03383  -0.00037   0.04420   0.05674   0.05675
  Beta virt. eigenvalues --    0.12859   0.13996   0.13998   0.14305   0.14593
  Beta virt. eigenvalues --    0.20350   0.20351   0.24098   0.25438   0.25438
  Beta virt. eigenvalues --    0.25450   0.26487   0.26489   0.33245   0.33247
  Beta virt. eigenvalues --    0.34319   0.34563   0.36514   0.38390   0.40094
  Beta virt. eigenvalues --    0.40097   0.40781   0.40781   0.42389   0.42390
  Beta virt. eigenvalues --    0.52867   0.59235   0.60355   0.68884   0.68898
  Beta virt. eigenvalues --    0.75989   0.75993   0.78581   0.78581   0.78582
  Beta virt. eigenvalues --    0.78582   0.78582   0.79195   0.79196   0.80606
  Beta virt. eigenvalues --    0.84524   0.90665   0.93565   0.94234   0.94236
  Beta virt. eigenvalues --    0.95489   0.95489   0.95508   0.95760   0.95763
  Beta virt. eigenvalues --    1.02424   1.02435   1.03609   1.06497   1.09147
  Beta virt. eigenvalues --    1.09150   1.09826   1.09839   1.23631   1.35365
  Beta virt. eigenvalues --    1.35366   1.47450   1.50269   1.50269   1.50830
  Beta virt. eigenvalues --    1.51994   1.56202   1.56215   1.64873   1.78818
  Beta virt. eigenvalues --    1.78827   1.95029   1.95039   1.96049   2.05335
  Beta virt. eigenvalues --    2.05346   2.08623   2.73620   2.75424   2.75426
  Beta virt. eigenvalues --    2.75708   2.99330   3.02129   3.02135   3.33625
  Beta virt. eigenvalues --    3.36999   3.37008   3.40248   3.40249   3.43491
  Beta virt. eigenvalues --    3.44251   3.44258   3.50200   3.68588   3.70793
  Beta virt. eigenvalues --    3.70820   3.70821   3.70830   3.70830   3.70839
  Beta virt. eigenvalues --    3.73839   3.73842   3.94887   3.94888   3.95198
  Beta virt. eigenvalues --    4.01342   4.01346   4.15628   4.15961   4.15990
  Beta virt. eigenvalues --    4.40839   4.57020   4.57022   4.59770   4.59775
  Beta virt. eigenvalues --    4.78591   4.81537   5.05121   5.05179   5.12832
  Beta virt. eigenvalues --    5.12858   5.18211   5.18223   5.29452   6.07111
  Beta virt. eigenvalues --    6.19009   6.19048   6.41355  15.92918
          Condensed to atoms (all electrons):
               1          2          3          4          5
     1  C    6.006542   0.346998   0.346994   0.346993  -0.000000
     2  H    0.346998   0.285365   0.009238   0.009222  -0.000000
     3  H    0.346994   0.009238   0.285372   0.009229  -0.000000
     4  H    0.346993   0.009222   0.009229   0.285374  -0.000000
     5  H   -0.000000  -0.000000  -0.000000  -0.000000   1.000002
          Atomic-Atomic Spin Densities.
               1          2          3          4          5
     1  C    0.974336   0.016935   0.016918   0.016883  -0.000000
     2  H    0.016935  -0.028833   0.001792   0.001794  -0.000000
     3  H    0.016918   0.001792  -0.028861   0.001793  -0.000000
     4  H    0.016883   0.001794   0.001793  -0.028872  -0.000000
     5  H   -0.000000  -0.000000  -0.000000  -0.000000   1.000002
 Mulliken charges and spin densities:
               1          2
     1  C   -1.047527   1.025072
     2  H    0.349177  -0.008312
     3  H    0.349168  -0.008358
     4  H    0.349182  -0.008402
     5  H   -0.000001   1.000001
 Sum of Mulliken charges =  -0.00000   2.00000
 Mulliken charges and spin densities with hydrogens summed into heavy atoms:
               1          2
     1  C   -0.000000   2.000000
 Electronic spatial extent (au):  <R**2>=            390.1812
 Charge=             -0.0000 electrons
 Dipole moment (field-independent basis, Debye):
    X=              0.0001    Y=             -0.0018    Z=              0.0000  Tot=              0.0018
 Quadrupole moment (field-independent basis, Debye-Ang):
   XX=             -8.6098   YY=            -10.5153   ZZ=             -8.6102
   XY=              0.0032   XZ=              0.0009   YZ=              0.0019
 Traceless Quadrupole moment (field-independent basis, Debye-Ang):
   XX=              0.6353   YY=             -1.2702   ZZ=              0.6349
   XY=              0.0032   XZ=              0.0009   YZ=              0.0019
 Octapole moment (field-independent basis, Debye-Ang**2):
  XXX=             -0.1725  YYY=             42.7422  ZZZ=              0.7656  XYY=             -0.0585
  XXY=             14.2015  XXZ=             -0.9713  XZZ=             -0.0586  YZZ=             14.2033
  YYZ=             -0.0520  XYZ=             -0.0015
 Hexadecapole moment (field-independent basis, Debye-Ang**3):
 XXXX=            -16.9244 YYYY=           -867.8604 ZZZZ=            -16.9215 XXXY=              1.7234
 XXXZ=             -0.0066 YYYX=              1.7272 YYYZ=              1.5447 ZZZX=             -0.0057
 ZZZY=              1.5385 XXYY=           -147.6000 XXZZ=             -5.6411 YYZZ=           -147.5994
 XXYZ=              0.5147 YYXZ=             -0.0023 ZZXY=              0.5745
 N-N= 1.015953277306D+01 E-N=-1.132025539573D+02  KE= 4.006394900403D+01
                          Isotropic Fermi Contact Couplings
        Atom                 a.u.       MegaHertz       Gauss      10(-4) cm-1
     1  C(13)              0.01738       9.76901       3.48583       3.25859
     2  H(1)              -0.01402     -31.33830     -11.18228     -10.45333
     3  H(1)              -0.01402     -31.34454     -11.18451     -10.45541
     4  H(1)              -0.01403     -31.35037     -11.18659     -10.45736
     5  H(1)               0.29165     651.81405     232.58345     217.42176
 --------------------------------------------------------
       Center         ----  Spin Dipole Couplings  ----
                      3XX-RR        3YY-RR        3ZZ-RR
 --------------------------------------------------------
     1   Atom       -0.568185      1.136417     -0.568232
     2   Atom       -0.077969      0.002616      0.075353
     3   Atom        0.037082      0.002617     -0.039699
     4   Atom        0.036968      0.002617     -0.039585
     5   Atom       -0.000152      0.000304     -0.000152
 --------------------------------------------------------
                        XY            XZ            YZ
 --------------------------------------------------------
     1   Atom       -0.002862     -0.000007     -0.001653
     2   Atom       -0.000136      0.000001      0.000035
     3   Atom       -0.000037     -0.066357     -0.000137
     4   Atom        0.000150      0.066422      0.000087
     5   Atom       -0.000002      0.000000     -0.000002
 --------------------------------------------------------


 ---------------------------------------------------------------------------------
              Anisotropic Spin Dipole Couplings in Principal Axis System
 ---------------------------------------------------------------------------------

       Atom             a.u.   MegaHertz   Gauss  10(-4) cm-1        Axes

              Baa    -0.5682   -76.252   -27.209   -25.435  0.2007  0.0013  0.9796
     1 C(13)  Bbb    -0.5682   -76.245   -27.206   -25.433  0.9796  0.0015 -0.2007
              Bcc     1.1364   152.497    54.415    50.868 -0.0017  1.0000 -0.0010
 
              Baa    -0.0780   -41.601   -14.844   -13.876  1.0000  0.0017 -0.0000
     2 H(1)   Bbb     0.0026     1.396     0.498     0.466 -0.0017  1.0000 -0.0005
              Bcc     0.0754    40.205    14.346    13.411  0.0000  0.0005  1.0000
 
              Baa    -0.0780   -41.601   -14.844   -13.877  0.4996  0.0017  0.8662
     3 H(1)   Bbb     0.0026     1.397     0.498     0.466 -0.0013  1.0000 -0.0012
              Bcc     0.0754    40.205    14.346    13.411  0.8662  0.0005 -0.4996
 
              Baa    -0.0780   -41.601   -14.844   -13.877 -0.5004 -0.0000  0.8658
     4 H(1)   Bbb     0.0026     1.396     0.498     0.466 -0.0021  1.0000 -0.0012
              Bcc     0.0754    40.205    14.346    13.411  0.8658  0.0024  0.5003
 
              Baa    -0.0002    -0.081    -0.029    -0.027  0.9717  0.0031 -0.2361
     5 H(1)   Bbb    -0.0002    -0.081    -0.029    -0.027  0.2361  0.0045  0.9717
              Bcc     0.0003     0.162     0.058     0.054 -0.0041  1.0000 -0.0037
 

 ---------------------------------------------------------------------------------

 DipInt: DoE/N= T T RetVal/Mat= T F Init=T NMatP=  1 IDeriv=0 Min/MaxMlt=  1  1
 Entering OneElI...
 Multipole integrals L=1 to 1 MinM= 0 MaxM= 0.
 Requested accuracy = 0.1000D-12
 PrsmSu:  NPrtUS=   1 ThrOK=F IAlg=1 NPAlg=1 LenDen=           0.
 Prism:   IPart=     0 DynPar=F LinDyn=F Incr=          11.
 PRISM was handed   419330724 working-precision words and  1107 shell-pairs
 IPart=  0 NShTot=        1107 NBatch=          37 AvBLen=        29.9
 PrSmSu:  NxtVal=             12.
 Entering OneElI...
 Calculate overlap and kinetic energy integrals
    NBasis = 155  MinDer = 1  MaxDer = 1
 Requested accuracy = 0.1000D-12
 PrsmSu:  NPrtUS=  32 ThrOK=T IAlg=1 NPAlg=1 LenDen=           0.
 Prism:   IPart=     0 DynPar=F LinDyn=F Incr=           1.
 PRISM was handed    13085234 working-precision words and  1133 shell-pairs
 PRISM was handed    13085234 working-precision words and  1133 shell-pairs
 PRISM was handed    13085234 working-precision words and  1133 shell-pairs
 PRISM was handed    13085234 working-precision words and  1133 shell-pairs
 PRISM was handed    13085234 working-precision words and  1133 shell-pairs
 PRISM was handed    13085234 working-precision words and  1133 shell-pairs
 PRISM was handed    13085234 working-precision words and  1133 shell-pairs
 PRISM was handed    13085234 working-precision words and  1133 shell-pairs
 PRISM was handed    13085234 working-precision words and  1133 shell-pairs
 PRISM was handed    13085234 working-precision words and  1133 shell-pairs
 PRISM was handed    13085234 working-precision words and  1133 shell-pairs
 PRISM was handed    13085234 working-precision words and  1133 shell-pairs
 PRISM was handed    13085234 working-precision words and  1133 shell-pairs
 PRISM was handed    13085234 working-precision words and  1133 shell-pairs
 IPart=  0 NShTot=          59 NBatch=          36 AvBLen=         1.6
 PRISM was handed    13085234 working-precision words and  1133 shell-pairs
 PRISM was handed    13085234 working-precision words and  1133 shell-pairs
 PRISM was handed    13085234 working-precision words and  1133 shell-pairs
 PRISM was handed    13085234 working-precision words and  1133 shell-pairs
 PRISM was handed    13085234 working-precision words and  1133 shell-pairs
 PRISM was handed    13085234 working-precision words and  1133 shell-pairs
 PRISM was handed    13085234 working-precision words and  1133 shell-pairs
 PRISM was handed    13085234 working-precision words and  1133 shell-pairs
 PRISM was handed    13085234 working-precision words and  1133 shell-pairs
 PRISM was handed    13085234 working-precision words and  1133 shell-pairs
 PRISM was handed    13085234 working-precision words and  1133 shell-pairs
 PRISM was handed    13085234 working-precision words and  1133 shell-pairs
 PRISM was handed    13085234 working-precision words and  1133 shell-pairs
 PRISM was handed    13085234 working-precision words and  1133 shell-pairs
 PRISM was handed    13085234 working-precision words and  1133 shell-pairs
 PRISM was handed    13085234 working-precision words and  1133 shell-pairs
 PRISM was handed    13085234 working-precision words and  1133 shell-pairs
 PRISM was handed    13085234 working-precision words and  1133 shell-pairs
 IPart=  6 NShTot=          43 NBatch=          20 AvBLen=         2.1
 IPart=  4 NShTot=          44 NBatch=          21 AvBLen=         2.1
 IPart= 24 NShTot=          28 NBatch=          11 AvBLen=         2.5
 IPart= 27 NShTot=          27 NBatch=          10 AvBLen=         2.7
 IPart=  2 NShTot=          50 NBatch=          27 AvBLen=         1.9
 IPart= 29 NShTot=          24 NBatch=           9 AvBLen=         2.7
 IPart= 25 NShTot=          28 NBatch=          11 AvBLen=         2.5
 IPart= 31 NShTot=          23 NBatch=           8 AvBLen=         2.9
 IPart=  1 NShTot=          53 NBatch=          30 AvBLen=         1.8
 IPart= 20 NShTot=          30 NBatch=          11 AvBLen=         2.7
 IPart= 21 NShTot=          29 NBatch=          11 AvBLen=         2.6
 IPart= 30 NShTot=          23 NBatch=           8 AvBLen=         2.9
 IPart= 16 NShTot=          33 NBatch=          12 AvBLen=         2.8
 IPart= 19 NShTot=          31 NBatch=          11 AvBLen=         2.8
 IPart= 12 NShTot=          39 NBatch=          17 AvBLen=         2.3
 IPart= 14 NShTot=          33 NBatch=          12 AvBLen=         2.8
 IPart= 18 NShTot=          32 NBatch=          12 AvBLen=         2.7
 IPart=  8 NShTot=          43 NBatch=          20 AvBLen=         2.1
 IPart= 23 NShTot=          28 NBatch=          11 AvBLen=         2.5
 IPart= 10 NShTot=          39 NBatch=          17 AvBLen=         2.3
 IPart=  3 NShTot=          45 NBatch=          22 AvBLen=         2.0
 IPart= 17 NShTot=          33 NBatch=          12 AvBLen=         2.8
 IPart= 13 NShTot=          36 NBatch=          14 AvBLen=         2.6
 IPart= 15 NShTot=          33 NBatch=          12 AvBLen=         2.8
 IPart=  5 NShTot=          44 NBatch=          21 AvBLen=         2.1
 IPart= 28 NShTot=          26 NBatch=          10 AvBLen=         2.6
 IPart=  7 NShTot=          43 NBatch=          20 AvBLen=         2.1
 IPart= 22 NShTot=          28 NBatch=          11 AvBLen=         2.5
 IPart= 11 NShTot=          39 NBatch=          17 AvBLen=         2.3
 IPart=  9 NShTot=          40 NBatch=          17 AvBLen=         2.4
 IPart= 26 NShTot=          27 NBatch=          10 AvBLen=         2.7
 PrSmSu:  NxtVal=             33.
 Entering OneElI...
 Calculate potential energy integrals
    NBasis = 155  MinDer = 1  MaxDer = 1
 Requested accuracy = 0.1000D-12
 PrsmSu:  NPrtUS=  32 ThrOK=T IAlg=1 NPAlg=1 LenDen=           0.
 Prism:   IPart=     0 DynPar=F LinDyn=F Incr=           1.
 PRISM was handed    13087663 working-precision words and  1005 shell-pairs
 PRISM was handed    13087663 working-precision words and  1005 shell-pairs
 PRISM was handed    13087663 working-precision words and  1005 shell-pairs
 PRISM was handed    13087663 working-precision words and  1005 shell-pairs
 PRISM was handed    13087663 working-precision words and  1005 shell-pairs
 PRISM was handed    13087663 working-precision words and  1005 shell-pairs
 PRISM was handed    13087663 working-precision words and  1005 shell-pairs
 PRISM was handed    13087663 working-precision words and  1005 shell-pairs
 PRISM was handed    13087663 working-precision words and  1005 shell-pairs
 PRISM was handed    13087663 working-precision words and  1005 shell-pairs
 PRISM was handed    13087663 working-precision words and  1005 shell-pairs
 PRISM was handed    13087663 working-precision words and  1005 shell-pairs
 PRISM was handed    13087663 working-precision words and  1005 shell-pairs
 PRISM was handed    13087663 working-precision words and  1005 shell-pairs
 PRISM was handed    13087663 working-precision words and  1005 shell-pairs
 PRISM was handed    13087663 working-precision words and  1005 shell-pairs
 PRISM was handed    13087663 working-precision words and  1005 shell-pairs
 PRISM was handed    13087663 working-precision words and  1005 shell-pairs
 PRISM was handed    13087663 working-precision words and  1005 shell-pairs
 PRISM was handed    13087663 working-precision words and  1005 shell-pairs
 PRISM was handed    13087663 working-precision words and  1005 shell-pairs
 PRISM was handed    13087663 working-precision words and  1005 shell-pairs
 PRISM was handed    13087663 working-precision words and  1005 shell-pairs
 PRISM was handed    13087663 working-precision words and  1005 shell-pairs
 PRISM was handed    13087663 working-precision words and  1005 shell-pairs
 PRISM was handed    13087663 working-precision words and  1005 shell-pairs
 PRISM was handed    13087663 working-precision words and  1005 shell-pairs
 PRISM was handed    13087663 working-precision words and  1005 shell-pairs
 PRISM was handed    13087663 working-precision words and  1005 shell-pairs
 PRISM was handed    13087663 working-precision words and  1005 shell-pairs
 PRISM was handed    13087663 working-precision words and  1005 shell-pairs
 PRISM was handed    13087663 working-precision words and  1005 shell-pairs
 IPart= 27 NShTot=         105 NBatch=          21 AvBLen=         5.0
 IPart=  6 NShTot=         200 NBatch=          40 AvBLen=         5.0
 IPart=  2 NShTot=         235 NBatch=          47 AvBLen=         5.0
 IPart= 29 NShTot=         100 NBatch=          20 AvBLen=         5.0
 IPart=  4 NShTot=         205 NBatch=          41 AvBLen=         5.0
 IPart= 21 NShTot=         125 NBatch=          25 AvBLen=         5.0
 IPart= 25 NShTot=         115 NBatch=          23 AvBLen=         5.0
 IPart= 30 NShTot=         100 NBatch=          20 AvBLen=         5.0
 IPart= 20 NShTot=         135 NBatch=          27 AvBLen=         5.0
 IPart=  1 NShTot=         250 NBatch=          50 AvBLen=         5.0
 IPart=  8 NShTot=         195 NBatch=          39 AvBLen=         5.0
 IPart= 17 NShTot=         140 NBatch=          28 AvBLen=         5.0
 IPart=  3 NShTot=         210 NBatch=          42 AvBLen=         5.0
 IPart= 13 NShTot=         150 NBatch=          30 AvBLen=         5.0
 IPart= 15 NShTot=         145 NBatch=          29 AvBLen=         5.0
 IPart= 24 NShTot=         115 NBatch=          23 AvBLen=         5.0
 IPart=  5 NShTot=         205 NBatch=          41 AvBLen=         5.0
 IPart= 18 NShTot=         135 NBatch=          27 AvBLen=         5.0
 IPart= 19 NShTot=         135 NBatch=          27 AvBLen=         5.0
 IPart=  7 NShTot=         195 NBatch=          39 AvBLen=         5.0
 IPart= 28 NShTot=         105 NBatch=          21 AvBLen=         5.0
 IPart= 12 NShTot=         160 NBatch=          32 AvBLen=         5.0
 IPart= 23 NShTot=         120 NBatch=          24 AvBLen=         5.0
 IPart= 22 NShTot=         125 NBatch=          25 AvBLen=         5.0
 IPart= 10 NShTot=         180 NBatch=          36 AvBLen=         5.0
 IPart=  9 NShTot=         180 NBatch=          36 AvBLen=         5.0
 IPart= 11 NShTot=         180 NBatch=          36 AvBLen=         5.0
 IPart= 26 NShTot=         115 NBatch=          23 AvBLen=         5.0
 IPart= 14 NShTot=         145 NBatch=          29 AvBLen=         5.0
 IPart= 16 NShTot=         140 NBatch=          28 AvBLen=         5.0
 IPart= 31 NShTot=         100 NBatch=          20 AvBLen=         5.0
 IPart=  0 NShTot=         280 NBatch=          56 AvBLen=         5.0
 PrSmSu:  NxtVal=             33.
 l701 out
 I=    0 X=   3.835847449778D-05 Y=  -7.013999245871D-04 Z=   1.669095069094D-05
 I=    1 X=  -1.214056359763D-03 Y=   2.471475310811D-02 Z=  -3.458564180223D-04
 I=    2 X=   1.069695105131D-04 Y=   2.355365153156D-03 Z=   2.299497312718D+00
 I=    3 X=   1.992042804821D+00 Y=   2.353694663322D-03 Z=  -1.148720563651D+00
 I=    4 X=  -1.991036846216D+00 Y=  -4.333479423811D-03 Z=  -1.150521265864D+00
 I=    5 X=   1.011282437457D-04 Y=  -2.509033350078D-02 Z=   9.037321462318D-05
 ICntrl=      2127.
 Calling FoFJK, ICntrl=      2127 FMM=F ISym2X=0 I1Cent= 0 IOpClX= 1 NMat=1 NMatS=1 NMatT=0.
 FoFJK:  IHMeth= 1 ICntrl=    2127 DoSepK=T KAlg= 0 I1Cent=   0 FoldK=F
 IRaf=         1 NMat=   1 IRICut=       1 DoRegI=T DoRafI=F ISym2E= 0.
 FoFCou: FMM=F IPFlag=           0 FMFlag=      100000 FMFlg1=         800
         NFxFlg=           0 DoJE=F BraDBF=F KetDBF=F FulRan=T
         wScrn=  0.000000 ICntrl=    2527 IOpCl=  0 I1Cent=           0 NGrid=           0
         NMat0=    1 NMatS0=      1 NMatT0=    0 NMatD0=    1 NMtDS0=    0 NMtDT0=    0
 Symmetry not used in FoFCou.
 FoFCou:  KetSym=F NOpSet=  1 NOpAb=1 NOp=  1.
 FoFCou:  CnvScl= 1.00D+00 Thresh= 1.00D-10 IAcrcy=      10.
 PrismS was handed   419307182 working-precision words and  1055 shell-pairs
 FoFCou: LinMIO=F DoNuc=F BraDBF=F KetDBF=F HaveP=T PDBF=F HaveZ=T HaveW=F
         NIJTC =      10 NIJTAt=       0 NIJTCD=       0 NIJTT =      10
         IJTBeg=       1 IJTEnd=      10 KLTBeg=       1 KLTEnd=      10
         IPTBeg=       1 IPTEnd=      10 IPTBCv=       1 IPTECv=      10
         IZTBeg=       1 IZTEnd=      10 IZTBCv=       1 IZTECv=      10
         IWTBeg=      11 IWTEnd=      10 IWTBCv=      11 IWTECv=      10
         INTBeg=       1 INTEnd=       0 IFTBCv=       1 IFTECv=      10
 NCel replicated for PrismC:     1
 CoulSu:  IncDef=  1024 NBBP=         557040 NTPThr=   100 NPartT=   32 Incr=         174 LDynOK=F.
 CoulSu:  NPrtUS=  32 ThrOK=T IAlg=1 NPAlg=1 LenDen=           0 LWGrdD=           0 DoCopy=F.
 Enter PrismC: JobTyp=21 DoJE=F Cont=F.
 Enter PrismC: JobTyp=21 DoJE=F Cont=F.
 Enter PrismC: JobTyp=21 DoJE=F Cont=F.
 Enter PrismC: JobTyp=21 DoJE=F Cont=F.
 Enter PrismC: JobTyp=21 DoJE=F Cont=F.
 Enter PrismC: JobTyp=21 DoJE=F Cont=F.
 Enter PrismC: JobTyp=21 DoJE=F Cont=F.
 Enter PrismC: JobTyp=21 DoJE=F Cont=F.
 PrismC:  IPart=     0 DynPar=T LinDyn=F Incr=         174 UseFst=F UseS4=T IGathr=2.
 PrismC was handed    13086432 working-precision words and  1055 shell-pairs
 PrismC was handed    13086432 working-precision words and  1055 shell-pairs
 Enter PrismC: JobTyp=21 DoJE=F Cont=F.
 Enter PrismC: JobTyp=21 DoJE=F Cont=F.
 Enter PrismC: JobTyp=21 DoJE=F Cont=F.
 Enter PrismC: JobTyp=21 DoJE=F Cont=F.
 Enter PrismC: JobTyp=21 DoJE=F Cont=F.
 Enter PrismC: JobTyp=21 DoJE=F Cont=F.
 Enter PrismC: JobTyp=21 DoJE=F Cont=F.
 PrismC was handed    13086432 working-precision words and  1055 shell-pairs
 Enter PrismC: JobTyp=21 DoJE=F Cont=F.
 PrismC was handed    13086432 working-precision words and  1055 shell-pairs
 Enter PrismC: JobTyp=21 DoJE=F Cont=F.
 PrismC was handed    13086432 working-precision words and  1055 shell-pairs
 Enter PrismC: JobTyp=21 DoJE=F Cont=F.
 PrismC was handed    13086432 working-precision words and  1055 shell-pairs
 Enter PrismC: JobTyp=21 DoJE=F Cont=F.
 PrismC was handed    13086432 working-precision words and  1055 shell-pairs
 Enter PrismC: JobTyp=21 DoJE=F Cont=F.
 PrismC was handed    13086432 working-precision words and  1055 shell-pairs
 Enter PrismC: JobTyp=21 DoJE=F Cont=F.
 PrismC was handed    13086432 working-precision words and  1055 shell-pairs
 Enter PrismC: JobTyp=21 DoJE=F Cont=F.
 PrismC was handed    13086432 working-precision words and  1055 shell-pairs
 Enter PrismC: JobTyp=21 DoJE=F Cont=F.
 PrismC was handed    13086432 working-precision words and  1055 shell-pairs
 Enter PrismC: JobTyp=21 DoJE=F Cont=F.
 PrismC was handed    13086432 working-precision words and  1055 shell-pairs
 Enter PrismC: JobTyp=21 DoJE=F Cont=F.
 PrismC was handed    13086432 working-precision words and  1055 shell-pairs
 Enter PrismC: JobTyp=21 DoJE=F Cont=F.
 PrismC was handed    13086432 working-precision words and  1055 shell-pairs
 Enter PrismC: JobTyp=21 DoJE=F Cont=F.
 PrismC was handed    13086432 working-precision words and  1055 shell-pairs
 Enter PrismC: JobTyp=21 DoJE=F Cont=F.
 PrismC was handed    13086432 working-precision words and  1055 shell-pairs
 Enter PrismC: JobTyp=21 DoJE=F Cont=F.
 PrismC was handed    13086432 working-precision words and  1055 shell-pairs
 Enter PrismC: JobTyp=21 DoJE=F Cont=F.
 PrismC was handed    13086432 working-precision words and  1055 shell-pairs
 PrismC was handed    13086432 working-precision words and  1055 shell-pairs
 PrismC was handed    13086432 working-precision words and  1055 shell-pairs
 PrismC was handed    13086432 working-precision words and  1055 shell-pairs
 PrismC was handed    13086432 working-precision words and  1055 shell-pairs
 PrismC was handed    13086432 working-precision words and  1055 shell-pairs
 PrismC was handed    13086432 working-precision words and  1055 shell-pairs
 Enter PrismC: JobTyp=21 DoJE=F Cont=F.
 Enter PrismC: JobTyp=21 DoJE=F Cont=F.
 PrismC was handed    13086432 working-precision words and  1055 shell-pairs
 PrismC was handed    13086432 working-precision words and  1055 shell-pairs
 PrismC was handed    13086432 working-precision words and  1055 shell-pairs
 PrismC was handed    13086432 working-precision words and  1055 shell-pairs
 PrismC was handed    13086432 working-precision words and  1055 shell-pairs
 PrismC was handed    13086432 working-precision words and  1055 shell-pairs
 PrismC was handed    13086432 working-precision words and  1055 shell-pairs
 PrismC was handed    13086432 working-precision words and  1055 shell-pairs
 IPart= 14 NShTot=       15167 NShNF=       15167 NShFF=           0 NBatch=         161 AvBLen=        94.2
 IPart= 17 NShTot=       16258 NShNF=       16258 NShFF=           0 NBatch=         173 AvBLen=        94.0
 IPart=  4 NShTot=       13685 NShNF=       13685 NShFF=           0 NBatch=         179 AvBLen=        76.5
 IPart= 28 NShTot=       12579 NShNF=       12579 NShFF=           0 NBatch=         131 AvBLen=        96.0
 IPart=  9 NShTot=       15235 NShNF=       15235 NShFF=           0 NBatch=         171 AvBLen=        89.1
 IPart= 21 NShTot=       15051 NShNF=       15051 NShFF=           0 NBatch=         159 AvBLen=        94.7
 IPart=  3 NShTot=       12506 NShNF=       12506 NShFF=           0 NBatch=         171 AvBLen=        73.1
 IPart= 13 NShTot=       13819 NShNF=       13819 NShFF=           0 NBatch=         166 AvBLen=        83.2
 IPart=  8 NShTot=       16299 NShNF=       16299 NShFF=           0 NBatch=         171 AvBLen=        95.3
 IPart=  5 NShTot=       14451 NShNF=       14451 NShFF=           0 NBatch=         175 AvBLen=        82.6
 IPart= 12 NShTot=       13742 NShNF=       13742 NShFF=           0 NBatch=         187 AvBLen=        73.5
 IPart= 31 NShTot=       14343 NShNF=       14343 NShFF=           0 NBatch=         163 AvBLen=        88.0
 IPart= 25 NShTot=       13311 NShNF=       13311 NShFF=           0 NBatch=         184 AvBLen=        72.3
 IPart= 19 NShTot=       16468 NShNF=       16468 NShFF=           0 NBatch=         179 AvBLen=        92.0
 IPart= 20 NShTot=       16065 NShNF=       16065 NShFF=           0 NBatch=         160 AvBLen=       100.4
 IPart= 16 NShTot=       12912 NShNF=       12912 NShFF=           0 NBatch=         170 AvBLen=        76.0
 IPart= 24 NShTot=       17041 NShNF=       17041 NShFF=           0 NBatch=         175 AvBLen=        97.4
 IPart=  2 NShTot=       16190 NShNF=       16190 NShFF=           0 NBatch=         153 AvBLen=       105.8
 IPart= 26 NShTot=       14390 NShNF=       14390 NShFF=           0 NBatch=         169 AvBLen=        85.1
 IPart= 29 NShTot=       14510 NShNF=       14510 NShFF=           0 NBatch=         195 AvBLen=        74.4
 IPart=  1 NShTot=       13695 NShNF=       13695 NShFF=           0 NBatch=         159 AvBLen=        86.1
 IPart= 22 NShTot=       15471 NShNF=       15471 NShFF=           0 NBatch=         172 AvBLen=        89.9
 IPart= 10 NShTot=       14835 NShNF=       14835 NShFF=           0 NBatch=         177 AvBLen=        83.8
 IPart= 23 NShTot=       13613 NShNF=       13613 NShFF=           0 NBatch=         186 AvBLen=        73.2
 IPart=  0 NShTot=       15149 NShNF=       15149 NShFF=           0 NBatch=         160 AvBLen=        94.7
 IPart= 30 NShTot=       15262 NShNF=       15262 NShFF=           0 NBatch=         146 AvBLen=       104.5
 IPart= 27 NShTot=       14274 NShNF=       14274 NShFF=           0 NBatch=         169 AvBLen=        84.5
 IPart=  7 NShTot=       13910 NShNF=       13910 NShFF=           0 NBatch=         158 AvBLen=        88.0
 IPart= 18 NShTot=       17482 NShNF=       17482 NShFF=           0 NBatch=         186 AvBLen=        94.0
 IPart= 15 NShTot=       15519 NShNF=       15519 NShFF=           0 NBatch=         164 AvBLen=        94.6
 IPart=  6 NShTot=       14329 NShNF=       14329 NShFF=           0 NBatch=         181 AvBLen=        79.2
 IPart= 11 NShTot=       14182 NShNF=       14182 NShFF=           0 NBatch=         152 AvBLen=        93.3
 CoulSu:  NxtVal=         617179.
 FoFCou: FMM=F IPFlag=           0 FMFlag=      100000 FMFlg1=         800
         NFxFlg=           0 DoJE=F BraDBF=F KetDBF=F FulRan=T
         wScrn=  0.000000 ICntrl=    2127 IOpCl=  1 I1Cent=           0 NGrid=           0
         NMat0=    1 NMatS0=      0 NMatT0=    1 NMatD0=    1 NMtDS0=    0 NMtDT0=    0
         CW=    0.222036    0.777964
         WU=    0.000000   12.500000
 Symmetry not used in FoFCou.
 FoFCou:  KetSym=F NOpSet=  1 NOpAb=1 NOp=  1.
 FoFCou:  CnvScl= 1.00D+00 Thresh= 1.00D-10 IAcrcy=      10.
 PrismS was handed   419305942 working-precision words and  1055 shell-pairs
 FoFCou: LinMIO=F DoNuc=F BraDBF=F KetDBF=F HaveP=T PDBF=F HaveZ=T HaveW=F
         NIJTC =      10 NIJTAt=       0 NIJTCD=       0 NIJTT =      10
         IJTBeg=       1 IJTEnd=      10 KLTBeg=       1 KLTEnd=      10
         IPTBeg=       1 IPTEnd=      10 IPTBCv=       1 IPTECv=      10
         IZTBeg=       1 IZTEnd=      10 IZTBCv=       1 IZTECv=      10
         IWTBeg=      11 IWTEnd=      10 IWTBCv=      11 IWTECv=      10
         INTBeg=       1 INTEnd=       0 IFTBCv=       1 IFTECv=      10
 NCel replicated for PrismC:     1
 CoulSu:  IncDef=  1024 NBBP=         557040 NTPThr=   100 NPartT=   32 Incr=         174 LDynOK=F.
 CoulSu:  NPrtUS=  32 ThrOK=T IAlg=1 NPAlg=1 LenDen=           0 LWGrdD=           0 DoCopy=F.
 Enter PrismC: JobTyp=21 DoJE=F Cont=F.
 Linear combination for Coulomb/exchange, wScrn=  0.000000
 Enter PrismC: JobTyp=21 DoJE=F Cont=F.
 Enter PrismC: JobTyp=21 DoJE=F Cont=F.
 Enter PrismC: JobTyp=21 DoJE=F Cont=F.
 Linear combination for Coulomb/exchange, wScrn=  0.000000
 CW=    0.222036    0.777964
 WU=    0.000000   12.500000
 Enter PrismC: JobTyp=21 DoJE=F Cont=F.
 Linear combination for Coulomb/exchange, wScrn=  0.000000
 CW=    0.222036    0.777964
 WU=    0.000000   12.500000
 Enter PrismC: JobTyp=21 DoJE=F Cont=F.
 Linear combination for Coulomb/exchange, wScrn=  0.000000
 CW=    0.222036    0.777964
 WU=    0.000000   12.500000
 Enter PrismC: JobTyp=21 DoJE=F Cont=F.
 Linear combination for Coulomb/exchange, wScrn=  0.000000
 CW=    0.222036    0.777964
 WU=    0.000000   12.500000
 Enter PrismC: JobTyp=21 DoJE=F Cont=F.
 Linear combination for Coulomb/exchange, wScrn=  0.000000
 CW=    0.222036    0.777964
 WU=    0.000000   12.500000
 Enter PrismC: JobTyp=21 DoJE=F Cont=F.
 Linear combination for Coulomb/exchange, wScrn=  0.000000
 CW=    0.222036    0.777964
 WU=    0.000000   12.500000
 Enter PrismC: JobTyp=21 DoJE=F Cont=F.
 Linear combination for Coulomb/exchange, wScrn=  0.000000
 CW=    0.222036    0.777964
 WU=    0.000000   12.500000
 Enter PrismC: JobTyp=21 DoJE=F Cont=F.
 Linear combination for Coulomb/exchange, wScrn=  0.000000
 CW=    0.222036    0.777964
 WU=    0.000000   12.500000
 Enter PrismC: JobTyp=21 DoJE=F Cont=F.
 Linear combination for Coulomb/exchange, wScrn=  0.000000
 CW=    0.222036    0.777964
 WU=    0.000000   12.500000
 Enter PrismC: JobTyp=21 DoJE=F Cont=F.
 Linear combination for Coulomb/exchange, wScrn=  0.000000
 CW=    0.222036    0.777964
 WU=    0.000000   12.500000
 Enter PrismC: JobTyp=21 DoJE=F Cont=F.
 Linear combination for Coulomb/exchange, wScrn=  0.000000
 CW=    0.222036    0.777964
 WU=    0.000000   12.500000
 PrismC was handed    13086393 working-precision words and  1055 shell-pairs
 Enter PrismC: JobTyp=21 DoJE=F Cont=F.
 Linear combination for Coulomb/exchange, wScrn=  0.000000
 CW=    0.222036    0.777964
 WU=    0.000000   12.500000
 Enter PrismC: JobTyp=21 DoJE=F Cont=F.
 Linear combination for Coulomb/exchange, wScrn=  0.000000
 CW=    0.222036    0.777964
 WU=    0.000000   12.500000
 Enter PrismC: JobTyp=21 DoJE=F Cont=F.
 Linear combination for Coulomb/exchange, wScrn=  0.000000
 CW=    0.222036    0.777964
 WU=    0.000000   12.500000
 Enter PrismC: JobTyp=21 DoJE=F Cont=F.
 Linear combination for Coulomb/exchange, wScrn=  0.000000
 CW=    0.222036    0.777964
 WU=    0.000000   12.500000
 Linear combination for Coulomb/exchange, wScrn=  0.000000
 CW=    0.222036    0.777964
 WU=    0.000000   12.500000
 CW=    0.222036    0.777964
 WU=    0.000000   12.500000
 PrismC:  IPart=     0 DynPar=T LinDyn=F Incr=         174 UseFst=F UseS4=T IGathr=2.
 PrismC was handed    13086393 working-precision words and  1055 shell-pairs
 Linear combination for Coulomb/exchange, wScrn=  0.000000
 CW=    0.222036    0.777964
 WU=    0.000000   12.500000
 PrismC was handed    13086393 working-precision words and  1055 shell-pairs
 Enter PrismC: JobTyp=21 DoJE=F Cont=F.
 Linear combination for Coulomb/exchange, wScrn=  0.000000
 CW=    0.222036    0.777964
 WU=    0.000000   12.500000
 Enter PrismC: JobTyp=21 DoJE=F Cont=F.
 Linear combination for Coulomb/exchange, wScrn=  0.000000
 CW=    0.222036    0.777964
 WU=    0.000000   12.500000
 Enter PrismC: JobTyp=21 DoJE=F Cont=F.
 Linear combination for Coulomb/exchange, wScrn=  0.000000
 CW=    0.222036    0.777964
 WU=    0.000000   12.500000
 PrismC was handed    13086393 working-precision words and  1055 shell-pairs
 PrismC was handed    13086393 working-precision words and  1055 shell-pairs
 Enter PrismC: JobTyp=21 DoJE=F Cont=F.
 Linear combination for Coulomb/exchange, wScrn=  0.000000
 CW=    0.222036    0.777964
 WU=    0.000000   12.500000
 Enter PrismC: JobTyp=21 DoJE=F Cont=F.
 Linear combination for Coulomb/exchange, wScrn=  0.000000
 CW=    0.222036    0.777964
 WU=    0.000000   12.500000
 PrismC was handed    13086393 working-precision words and  1055 shell-pairs
 Enter PrismC: JobTyp=21 DoJE=F Cont=F.
 Linear combination for Coulomb/exchange, wScrn=  0.000000
 CW=    0.222036    0.777964
 WU=    0.000000   12.500000
 PrismC was handed    13086393 working-precision words and  1055 shell-pairs
 PrismC was handed    13086393 working-precision words and  1055 shell-pairs
 Enter PrismC: JobTyp=21 DoJE=F Cont=F.
 Linear combination for Coulomb/exchange, wScrn=  0.000000
 CW=    0.222036    0.777964
 WU=    0.000000   12.500000
 PrismC was handed    13086393 working-precision words and  1055 shell-pairs
 Enter PrismC: JobTyp=21 DoJE=F Cont=F.
 Linear combination for Coulomb/exchange, wScrn=  0.000000
 CW=    0.222036    0.777964
 WU=    0.000000   12.500000
 Enter PrismC: JobTyp=21 DoJE=F Cont=F.
 Linear combination for Coulomb/exchange, wScrn=  0.000000
 CW=    0.222036    0.777964
 WU=    0.000000   12.500000
 Enter PrismC: JobTyp=21 DoJE=F Cont=F.
 Linear combination for Coulomb/exchange, wScrn=  0.000000
 CW=    0.222036    0.777964
 WU=    0.000000   12.500000
 Enter PrismC: JobTyp=21 DoJE=F Cont=F.
 Linear combination for Coulomb/exchange, wScrn=  0.000000
 CW=    0.222036    0.777964
 WU=    0.000000   12.500000
 PrismC was handed    13086393 working-precision words and  1055 shell-pairs
 Enter PrismC: JobTyp=21 DoJE=F Cont=F.
 Linear combination for Coulomb/exchange, wScrn=  0.000000
 CW=    0.222036    0.777964
 WU=    0.000000   12.500000
 PrismC was handed    13086393 working-precision words and  1055 shell-pairs
 PrismC was handed    13086393 working-precision words and  1055 shell-pairs
 PrismC was handed    13086393 working-precision words and  1055 shell-pairs
 PrismC was handed    13086393 working-precision words and  1055 shell-pairs
 PrismC was handed    13086393 working-precision words and  1055 shell-pairs
 PrismC was handed    13086393 working-precision words and  1055 shell-pairs
 PrismC was handed    13086393 working-precision words and  1055 shell-pairs
 Enter PrismC: JobTyp=21 DoJE=F Cont=F.
 Linear combination for Coulomb/exchange, wScrn=  0.000000
 CW=    0.222036    0.777964
 WU=    0.000000   12.500000
 PrismC was handed    13086393 working-precision words and  1055 shell-pairs
 PrismC was handed    13086393 working-precision words and  1055 shell-pairs
 PrismC was handed    13086393 working-precision words and  1055 shell-pairs
 PrismC was handed    13086393 working-precision words and  1055 shell-pairs
 PrismC was handed    13086393 working-precision words and  1055 shell-pairs
 PrismC was handed    13086393 working-precision words and  1055 shell-pairs
 PrismC was handed    13086393 working-precision words and  1055 shell-pairs
 PrismC was handed    13086393 working-precision words and  1055 shell-pairs
 PrismC was handed    13086393 working-precision words and  1055 shell-pairs
 Enter PrismC: JobTyp=21 DoJE=F Cont=F.
 Linear combination for Coulomb/exchange, wScrn=  0.000000
 CW=    0.222036    0.777964
 WU=    0.000000   12.500000
 PrismC was handed    13086393 working-precision words and  1055 shell-pairs
 PrismC was handed    13086393 working-precision words and  1055 shell-pairs
 PrismC was handed    13086393 working-precision words and  1055 shell-pairs
 PrismC was handed    13086393 working-precision words and  1055 shell-pairs
 PrismC was handed    13086393 working-precision words and  1055 shell-pairs
 PrismC was handed    13086393 working-precision words and  1055 shell-pairs
 IPart= 14 NShTot=       13440 NShNF=       13440 NShFF=           0 NBatch=         175 AvBLen=        76.8
 IPart= 20 NShTot=       14614 NShNF=       14614 NShFF=           0 NBatch=         205 AvBLen=        71.3
 IPart= 29 NShTot=       16013 NShNF=       16013 NShFF=           0 NBatch=         201 AvBLen=        79.7
 IPart= 27 NShTot=       15116 NShNF=       15116 NShFF=           0 NBatch=         200 AvBLen=        75.6
 IPart=  6 NShTot=       16260 NShNF=       16260 NShFF=           0 NBatch=         197 AvBLen=        82.5
 IPart=  4 NShTot=       13660 NShNF=       13660 NShFF=           0 NBatch=         207 AvBLen=        66.0
 IPart= 31 NShTot=       13297 NShNF=       13297 NShFF=           0 NBatch=         197 AvBLen=        67.5
 IPart= 10 NShTot=       15771 NShNF=       15771 NShFF=           0 NBatch=         208 AvBLen=        75.8
 IPart=  2 NShTot=       14040 NShNF=       14040 NShFF=           0 NBatch=         184 AvBLen=        76.3
 IPart=  9 NShTot=       14054 NShNF=       14054 NShFF=           0 NBatch=         195 AvBLen=        72.1
 IPart= 16 NShTot=       14732 NShNF=       14732 NShFF=           0 NBatch=         189 AvBLen=        77.9
 IPart= 13 NShTot=       17225 NShNF=       17225 NShFF=           0 NBatch=         204 AvBLen=        84.4
 IPart= 18 NShTot=       14313 NShNF=       14313 NShFF=           0 NBatch=         168 AvBLen=        85.2
 IPart= 26 NShTot=       15640 NShNF=       15640 NShFF=           0 NBatch=         204 AvBLen=        76.7
 IPart= 12 NShTot=       13233 NShNF=       13233 NShFF=           0 NBatch=         210 AvBLen=        63.0
 IPart=  1 NShTot=       14941 NShNF=       14941 NShFF=           0 NBatch=         203 AvBLen=        73.6
 IPart=  0 NShTot=       14069 NShNF=       14069 NShFF=           0 NBatch=         174 AvBLen=        80.9
 IPart= 15 NShTot=       14103 NShNF=       14103 NShFF=           0 NBatch=         204 AvBLen=        69.1
 IPart= 19 NShTot=       14024 NShNF=       14024 NShFF=           0 NBatch=         213 AvBLen=        65.8
 IPart= 28 NShTot=       14581 NShNF=       14581 NShFF=           0 NBatch=         188 AvBLen=        77.6
 IPart= 25 NShTot=       14619 NShNF=       14619 NShFF=           0 NBatch=         186 AvBLen=        78.6
 IPart= 24 NShTot=       13438 NShNF=       13438 NShFF=           0 NBatch=         213 AvBLen=        63.1
 IPart= 23 NShTot=       17096 NShNF=       17096 NShFF=           0 NBatch=         162 AvBLen=       105.5
 IPart=  5 NShTot=       12594 NShNF=       12594 NShFF=           0 NBatch=         209 AvBLen=        60.3
 IPart= 22 NShTot=       16380 NShNF=       16380 NShFF=           0 NBatch=         206 AvBLen=        79.5
 IPart= 11 NShTot=       12727 NShNF=       12727 NShFF=           0 NBatch=         155 AvBLen=        82.1
 IPart= 17 NShTot=       14830 NShNF=       14830 NShFF=           0 NBatch=         202 AvBLen=        73.4
 IPart=  3 NShTot=       13524 NShNF=       13524 NShFF=           0 NBatch=         204 AvBLen=        66.3
 IPart=  8 NShTot=       15420 NShNF=       15420 NShFF=           0 NBatch=         161 AvBLen=        95.8
 IPart=  7 NShTot=       15533 NShNF=       15533 NShFF=           0 NBatch=         184 AvBLen=        84.4
 IPart= 21 NShTot=       17395 NShNF=       17395 NShFF=           0 NBatch=         167 AvBLen=       104.2
 IPart= 30 NShTot=       14987 NShNF=       14987 NShFF=           0 NBatch=         218 AvBLen=        68.7
 CoulSu:  NxtVal=         617179.
 ReadGW:  IGet=0 IStart=           1 Next=           1 LGW=           0.
 Remaining memory in FofDFT      399.95 Mw
 CkSvGd:  ISavGI=        -1 IRadAn=       5 IRASav=       5 ISavGd=        -1.
 CalDSu:  NPrtUS=  32 ThrOK=T IAlg=1 NPAlg=2 DoDPD=T LenP=       12090 LenD1P=             0.
 IPart=  0 IRanGd=          0 ScrnBf=T ScrnGd=T RCrit=4.00D+00 DoMicB=T.
 IPart= 21         3889 of         4200 points in       5 batches and       51 microbatches, Max-NSigAt=       5 Max-NSgAt2=       5
 IPart= 12         2638 of         2642 points in       2 batches and        7 microbatches, Max-NSigAt=       5 Max-NSgAt2=       5
 IPart= 15         3987 of         4354 points in       5 batches and       32 microbatches, Max-NSigAt=       5 Max-NSgAt2=       5
 IPart= 30         2815 of         2948 points in       3 batches and       21 microbatches, Max-NSigAt=       5 Max-NSgAt2=       5
 IPart= 27         4251 of         4426 points in       4 batches and       10 microbatches, Max-NSigAt=       5 Max-NSgAt2=       5
 IPart= 18         3903 of         4228 points in       5 batches and       33 microbatches, Max-NSigAt=       5 Max-NSgAt2=       5
 IPart= 10         2975 of         3160 points in       3 batches and        9 microbatches, Max-NSigAt=       5 Max-NSgAt2=       5
 IPart= 23         2838 of         3140 points in       3 batches and        6 microbatches, Max-NSigAt=       5 Max-NSgAt2=       5
 IPart=  5         2661 of         2732 points in       2 batches and        9 microbatches, Max-NSigAt=       5 Max-NSgAt2=       5
 IPart= 17         3860 of         4196 points in       5 batches and       28 microbatches, Max-NSigAt=       5 Max-NSgAt2=       5
 IPart= 29         3322 of         3568 points in       4 batches and       36 microbatches, Max-NSigAt=       5 Max-NSgAt2=       5
 IPart=  9         2830 of         2964 points in       3 batches and       29 microbatches, Max-NSigAt=       5 Max-NSgAt2=       5
 IPart=  4         3344 of         3568 points in       4 batches and       22 microbatches, Max-NSigAt=       5 Max-NSgAt2=       5
 IPart= 26         3446 of         3540 points in       3 batches and       11 microbatches, Max-NSigAt=       5 Max-NSgAt2=       5
 IPart= 24         3138 of         3322 points in       3 batches and       29 microbatches, Max-NSigAt=       5 Max-NSgAt2=       5
 IPart= 19         4384 of         4748 points in       5 batches and       11 microbatches, Max-NSigAt=       5 Max-NSgAt2=       5
 IPart=  0         3564 of         3564 points in       3 batches and        9 microbatches, Max-NSigAt=       5 Max-NSgAt2=       5
 IPart=  2         3780 of         3940 points in       4 batches and       26 microbatches, Max-NSigAt=       5 Max-NSgAt2=       5
 IPart= 25         4002 of         4368 points in       5 batches and       32 microbatches, Max-NSigAt=       5 Max-NSgAt2=       5
 IPart= 14         3388 of         3596 points in       4 batches and       38 microbatches, Max-NSigAt=       5 Max-NSgAt2=       5
 IPart= 16         3090 of         3274 points in       4 batches and       52 microbatches, Max-NSigAt=       5 Max-NSgAt2=       5
 IPart=  6         3508 of         3540 points in       3 batches and       11 microbatches, Max-NSigAt=       5 Max-NSgAt2=       5
 IPart=  3         3478 of         3596 points in       4 batches and       33 microbatches, Max-NSigAt=       5 Max-NSgAt2=       5
 IPart= 13         3871 of         4172 points in       5 batches and       31 microbatches, Max-NSigAt=       5 Max-NSgAt2=       5
 IPart= 11         2747 of         2964 points in       3 batches and       27 microbatches, Max-NSigAt=       5 Max-NSgAt2=       5
 IPart=  1         4038 of         4200 points in       4 batches and       11 microbatches, Max-NSigAt=       5 Max-NSgAt2=       5
 IPart= 20         3162 of         3336 points in       3 batches and        8 microbatches, Max-NSigAt=       5 Max-NSgAt2=       5
 IPart= 31         3718 of         3718 points in       3 batches and       12 microbatches, Max-NSigAt=       5 Max-NSgAt2=       5
 IPart= 28         3144 of         3336 points in       3 batches and       19 microbatches, Max-NSigAt=       5 Max-NSgAt2=       5
 IPart=  8         3858 of         4172 points in       5 batches and       27 microbatches, Max-NSigAt=       5 Max-NSgAt2=       5
 IPart= 22         3752 of         4200 points in       5 batches and       57 microbatches, Max-NSigAt=       5 Max-NSgAt2=       5
 IPart=  7         3385 of         3568 points in       4 batches and       39 microbatches, Max-NSigAt=       5 Max-NSgAt2=       5
 Forces at end of L703
 I=    0 X=   3.835847449778D-05 Y=  -7.013999245871D-04 Z=   1.669095069094D-05
 I=    1 X=  -4.743332378242D-05 Y=   4.972672502645D-05 Z=  -3.272723791282D-05
 I=    2 X=   3.938689147646D-05 Y=  -1.653913316490D-05 Z=  -4.428981554616D-05
 I=    3 X=  -2.622862212132D-05 Y=  -1.669996284079D-05 Z=   5.890834679256D-05
 I=    4 X=   3.427447960402D-05 Y=  -1.632117550105D-05 Z=   1.810725507179D-05
 I=    5 X=   0.000000000000D+00 Y=  -1.664535197558D-07 Z=   0.000000000000D+00
 FrcOut:
 IF    =    39 IFX   =    54 IFXYZ =    69
 IFFX  =    84 IFFFX =   204 IFLen =    15
 IFFLen=   120 IFFFLn=     0 IEDerv=   204
 LEDerv=   773 IFroze=  1166 ICStrt= 39594
 FCEst1:  Generated internal coordinate force constants:
                1             2             3             4             5 
      1  0.717540D+00
      2  0.706387D-03  0.214182D+00
      3  0.118411D-03  0.334665D-03  0.717456D+00
      4 -0.115753D+00  0.155694D-04 -0.329968D-04  0.771667D-01
      5  0.156727D-04 -0.710447D-01  0.430369D-02 -0.443268D-04  0.493805D-01
      6  0.000000D+00  0.000000D+00 -0.362127D+00  0.000000D+00  0.000000D+00
      7 -0.300650D+00  0.290357D-04  0.106634D+00  0.192752D-01 -0.102641D-04
      8  0.375733D-02 -0.710523D-01 -0.209959D-02 -0.205455D-04  0.108395D-01
      9  0.106601D+00  0.503480D-04 -0.177223D+00  0.334233D-01 -0.177979D-04
     10 -0.300450D+00 -0.753951D-03 -0.106712D+00  0.193036D-01  0.388230D-04
     11 -0.448063D-02 -0.710851D-01 -0.253992D-02  0.492103D-04  0.108397D-01
     12 -0.106712D+00 -0.386571D-03 -0.177436D+00 -0.334071D-01 -0.130181D-03
     13 -0.686888D-03  0.295881D-05 -0.753704D-05  0.788849D-05  0.000000D+00
     14  0.123953D-05 -0.999982D-03  0.116113D-05  0.000000D+00 -0.150209D-04
     15 -0.753243D-05  0.155850D-05 -0.670334D-03  0.167885D-04 -0.415571D-02
                6             7             8             9            10 
      6  0.362127D+00
      7  0.000000D+00  0.291007D+00
      8  0.000000D+00 -0.434186D-04  0.493802D-01
      9  0.000000D+00 -0.123322D+00 -0.752879D-04  0.148287D+00
     10  0.000000D+00 -0.964375D-02 -0.934358D-04 -0.167223D-01  0.290795D+00
     11  0.000000D+00  0.246086D-04  0.108397D-01  0.426712D-04  0.808612D-03
     12  0.000000D+00  0.166893D-01  0.987057D-04  0.289393D-01  0.123442D+00
     13  0.000000D+00  0.112243D-04 -0.359993D-02  0.194629D-04 -0.508259D-05
     14  0.000000D+00  0.000000D+00 -0.705962D-05  0.000000D+00  0.000000D+00
     15  0.000000D+00 -0.193227D-05  0.207617D-02 -0.335056D-05 -0.751257D-05
               11            12            13            14            15 
     11  0.493836D-01
     12  0.418092D-03  0.148496D+00
     13  0.359819D-02 -0.121146D-04  0.672858D-03
     14  0.220726D-04  0.000000D+00 -0.132284D-05  0.999990D-03
     15  0.207916D-02  0.000000D+00  0.000000D+00 -0.118206D-05  0.672766D-03
 Quadrupole    = 4.72334681D-01-9.44360227D-01 4.72025546D-01
                 2.40035246D-03 6.53391288D-04 1.39958928D-03
 -------------------------------------------------------------------
 Center     Atomic                   Forces (Hartrees/Bohr)
 Number     Number              X              Y              Z
 -------------------------------------------------------------------
      1        6           0.000047433   -0.000049727    0.000032727
      2        1          -0.000039387    0.000016539    0.000044290
      3        1           0.000026229    0.000016700   -0.000058908
      4        1          -0.000034274    0.000016321   -0.000018107
      5        1          -0.000000001    0.000000166   -0.000000001
 -------------------------------------------------------------------
 Cartesian Forces:  Max     0.000058908 RMS     0.000032441
 From PutF, contents of force:
   1   -0.1863167671D-08
   2    0.1606127610D-07
   3    0.3868804771D-04
   4    0.7727679892D-04
   5   -0.2938841792D-05
   6    0.2899606222D-04
   7    0.5215036411D-04
   8    0.4428981555D-04
   9   -0.1664586426D-06
 -----------------------------------------------------------------------------------------------
                       Internal Coordinate Forces (Hartree/Bohr or radian)
  Cent   Atom   N1       Length/X         N2         Alpha/Y        N3         Beta/Z          J
 -----------------------------------------------------------------------------------------------
      1  C 
      2  H        1   0.000044(     1)
      3  H        1   0.000052(     2)      2   0.000077(     5)
      4  H        1   0.000039(     3)      2  -0.000003(     6)      3   0.000029(     8)     0
      5  H        1  -0.000000(     4)      2   0.000000(     7)      3  -0.000000(     9)     0
 -----------------------------------------------------------------------------------------------
 Internal  Forces:  Max     0.000077277 RMS     0.000038005
 Force constants in Cartesian coordinates: 
                1             2             3             4             5 
      1  0.717540D+00
      2  0.706387D-03  0.214182D+00
      3  0.118411D-03  0.334665D-03  0.717456D+00
      4 -0.115753D+00  0.155694D-04 -0.329968D-04  0.771667D-01
      5  0.156727D-04 -0.710447D-01  0.430369D-02 -0.443268D-04  0.493805D-01
      6  0.000000D+00  0.000000D+00 -0.362127D+00  0.000000D+00  0.000000D+00
      7 -0.300650D+00  0.290357D-04  0.106634D+00  0.192752D-01 -0.102641D-04
      8  0.375733D-02 -0.710523D-01 -0.209959D-02 -0.205455D-04  0.108395D-01
      9  0.106601D+00  0.503480D-04 -0.177223D+00  0.334233D-01 -0.177979D-04
     10 -0.300450D+00 -0.753951D-03 -0.106712D+00  0.193036D-01  0.388230D-04
     11 -0.448063D-02 -0.710851D-01 -0.253992D-02  0.492103D-04  0.108397D-01
     12 -0.106712D+00 -0.386571D-03 -0.177436D+00 -0.334071D-01 -0.130181D-03
     13 -0.686888D-03  0.295881D-05 -0.753704D-05  0.788849D-05  0.000000D+00
     14  0.123953D-05 -0.999982D-03  0.116113D-05  0.000000D+00 -0.150209D-04
     15 -0.753243D-05  0.155850D-05 -0.670334D-03  0.167885D-04 -0.415571D-02
                6             7             8             9            10 
      6  0.362127D+00
      7  0.000000D+00  0.291007D+00
      8  0.000000D+00 -0.434186D-04  0.493802D-01
      9  0.000000D+00 -0.123322D+00 -0.752879D-04  0.148287D+00
     10  0.000000D+00 -0.964375D-02 -0.934358D-04 -0.167223D-01  0.290795D+00
     11  0.000000D+00  0.246086D-04  0.108397D-01  0.426712D-04  0.808612D-03
     12  0.000000D+00  0.166893D-01  0.987057D-04  0.289393D-01  0.123442D+00
     13  0.000000D+00  0.112243D-04 -0.359993D-02  0.194629D-04 -0.508259D-05
     14  0.000000D+00  0.000000D+00 -0.705962D-05  0.000000D+00  0.000000D+00
     15  0.000000D+00 -0.193227D-05  0.207617D-02 -0.335056D-05 -0.751257D-05
               11            12            13            14            15 
     11  0.493836D-01
     12  0.418092D-03  0.148496D+00
     13  0.359819D-02 -0.121146D-04  0.672858D-03
     14  0.220726D-04  0.000000D+00 -0.132284D-05  0.999990D-03
     15  0.207916D-02  0.000000D+00  0.000000D+00 -0.118206D-05  0.672766D-03
 FCInt: Cartesian first derivatives: 
                 1             2             3             4             5 
      1   0.000000D+00  0.000000D+00  0.000000D+00  0.000000D+00  0.000000D+00
      2   0.000000D+00  0.000000D+00  0.000000D+00  0.000000D+00  0.000000D+00
      3   0.000000D+00  0.000000D+00  0.000000D+00  0.000000D+00  0.000000D+00
 FCInt: Cartesian force constants: 
                1             2             3             4             5 
      1  0.717540D+00
      2  0.706387D-03  0.214182D+00
      3  0.118411D-03  0.334665D-03  0.717456D+00
      4 -0.115753D+00  0.155694D-04 -0.329968D-04  0.771667D-01
      5  0.156727D-04 -0.710447D-01  0.430369D-02 -0.443268D-04  0.493805D-01
      6  0.000000D+00  0.000000D+00 -0.362127D+00  0.000000D+00  0.000000D+00
      7 -0.300650D+00  0.290357D-04  0.106634D+00  0.192752D-01 -0.102641D-04
      8  0.375733D-02 -0.710523D-01 -0.209959D-02 -0.205455D-04  0.108395D-01
      9  0.106601D+00  0.503480D-04 -0.177223D+00  0.334233D-01 -0.177979D-04
     10 -0.300450D+00 -0.753951D-03 -0.106712D+00  0.193036D-01  0.388230D-04
     11 -0.448063D-02 -0.710851D-01 -0.253992D-02  0.492103D-04  0.108397D-01
     12 -0.106712D+00 -0.386571D-03 -0.177436D+00 -0.334071D-01 -0.130181D-03
     13 -0.686888D-03  0.295881D-05 -0.753704D-05  0.788849D-05  0.000000D+00
     14  0.123953D-05 -0.999982D-03  0.116113D-05  0.000000D+00 -0.150209D-04
     15 -0.753243D-05  0.155850D-05 -0.670334D-03  0.167885D-04 -0.415571D-02
                6             7             8             9            10 
      6  0.362127D+00
      7  0.000000D+00  0.291007D+00
      8  0.000000D+00 -0.434186D-04  0.493802D-01
      9  0.000000D+00 -0.123322D+00 -0.752879D-04  0.148287D+00
     10  0.000000D+00 -0.964375D-02 -0.934358D-04 -0.167223D-01  0.290795D+00
     11  0.000000D+00  0.246086D-04  0.108397D-01  0.426712D-04  0.808612D-03
     12  0.000000D+00  0.166893D-01  0.987057D-04  0.289393D-01  0.123442D+00
     13  0.000000D+00  0.112243D-04 -0.359993D-02  0.194629D-04 -0.508259D-05
     14  0.000000D+00  0.000000D+00 -0.705962D-05  0.000000D+00  0.000000D+00
     15  0.000000D+00 -0.193227D-05  0.207617D-02 -0.335056D-05 -0.751257D-05
               11            12            13            14            15 
     11  0.493836D-01
     12  0.418092D-03  0.148496D+00
     13  0.359819D-02 -0.121146D-04  0.672858D-03
     14  0.220726D-04  0.000000D+00 -0.132284D-05  0.999990D-03
     15  0.207916D-02  0.000000D+00  0.000000D+00 -0.118206D-05  0.672766D-03
 Internal force constants: 
                1             2             3             4             5 
      1  0.362127D+00
      2  0.000000D+00  0.362127D+00
      3  0.000000D+00  0.000000D+00  0.362127D+00
      4  0.000000D+00  0.000000D+00  0.000000D+00  0.100000D-02
      5  0.000000D+00  0.000000D+00  0.000000D+00  0.000000D+00  0.320352D+00
      6  0.000000D+00  0.000000D+00  0.000000D+00  0.000000D+00  0.160174D+00
      7  0.000000D+00  0.000000D+00  0.000000D+00  0.000000D+00 -0.148924D-03
      8  0.000000D+00  0.000000D+00  0.000000D+00  0.000000D+00 -0.410061D-03
      9  0.000000D+00  0.000000D+00  0.000000D+00  0.000000D+00  0.865071D-03
                6             7             8             9 
      6  0.320351D+00
      7  0.408412D-04  0.240247D+00
      8 -0.148206D-04 -0.693156D-01  0.153686D+00
      9 -0.538724D-03  0.656869D-04 -0.119957D+00  0.240277D+00
 Frcnst in PutFF: 
                1             2             3             4             5 
      1  0.240277D+00
      2  0.656869D-04  0.240247D+00
      3  0.000000D+00  0.000000D+00  0.362127D+00
      4  0.865071D-03 -0.148924D-03  0.000000D+00  0.320352D+00
      5 -0.538724D-03  0.408412D-04  0.000000D+00  0.160174D+00  0.320351D+00
      6 -0.119957D+00 -0.693156D-01  0.000000D+00 -0.410061D-03 -0.148206D-04
      7  0.000000D+00  0.000000D+00  0.000000D+00  0.000000D+00  0.000000D+00
      8  0.000000D+00  0.000000D+00  0.000000D+00  0.000000D+00  0.000000D+00
      9  0.000000D+00  0.000000D+00  0.000000D+00  0.000000D+00  0.000000D+00
                6             7             8             9 
      6  0.153686D+00
      7  0.000000D+00  0.362127D+00
      8  0.000000D+00  0.000000D+00  0.362127D+00
      9  0.000000D+00  0.000000D+00  0.000000D+00  0.100000D-02
 Force constants in internal coordinates: 
                1             2             3             4             5 
      1  0.362127D+00
      2  0.000000D+00  0.362127D+00
      3  0.000000D+00  0.000000D+00  0.362127D+00
      4  0.000000D+00  0.000000D+00  0.000000D+00  0.100000D-02
      5  0.000000D+00  0.000000D+00  0.000000D+00  0.000000D+00  0.320352D+00
      6  0.000000D+00  0.000000D+00  0.000000D+00  0.000000D+00  0.160174D+00
      7  0.000000D+00  0.000000D+00  0.000000D+00  0.000000D+00 -0.148924D-03
      8  0.000000D+00  0.000000D+00  0.000000D+00  0.000000D+00 -0.410061D-03
      9  0.000000D+00  0.000000D+00  0.000000D+00  0.000000D+00  0.865071D-03
                6             7             8             9 
      6  0.320351D+00
      7  0.408412D-04  0.240247D+00
      8 -0.148206D-04 -0.693156D-01  0.153686D+00
      9 -0.538724D-03  0.656869D-04 -0.119957D+00  0.240277D+00
 Final forces over variables, Energy=-4.03419793D+01:
 -1.86316767D-09 1.60612761D-08 3.86880477D-05 7.72767989D-05
 -2.93884179D-06 2.89960622D-05 5.21503641D-05 4.42898155D-05
 -1.66458643D-07

 GradGradGradGradGradGradGradGradGradGradGradGradGradGradGradGradGradGrad
 Berny optimization.
 Search for a local minimum.
 Step number   1 out of a maximum of   50
 All quantities printed in internal units (Hartrees-Bohrs-Radians)
 Second derivative matrix not updated -- first step.
 The second derivative matrix:
                         BABS1     AABS1      R3        A2        A3
           BABS1        0.24028
           AABS1        0.00007   0.24025
           R3           0.00000   0.00000   0.36213
           A2           0.00087  -0.00015  -0.00000   0.32035
           A3          -0.00054   0.00004  -0.00000   0.16017   0.32035
           D3          -0.11996  -0.06932   0.00000  -0.00041  -0.00001
           R2           0.00000   0.00000  -0.00000   0.00000   0.00000
           R1           0.00000   0.00000   0.00000   0.00000   0.00000
           RTS         -0.00000  -0.00000  -0.00000  -0.00000  -0.00000
                          D3        R2        R1        RTS
           D3           0.15369
           R2          -0.00000   0.36213
           R1           0.00000   0.00000   0.36213
           RTS          0.00000  -0.00000   0.00000   0.00100
 ITU=  0
     Eigenvalues ---    0.24019   0.240331000.000001000.000001000.00000
     Eigenvalues --- 1000.000001000.000001000.000001000.00000
 RFO step:  Lambda= 0.00000000D+00 EMin= 2.40194849D-01
 Linear search not attempted -- first point.
 Variable       Old X    -DE/DX   Delta X   Delta X   Delta X     New X
                                 (Linear)    (Quad)   (Total)
  BABS1       1.56675  -0.00000   0.00000  -0.00000  -0.00000   1.56675
  AABS1       1.56718   0.00000   0.00000   0.00000   0.00000   1.56718
    R3        2.03750   0.00004   0.00000   0.00000   0.00000   2.03750
    A2        2.09391   0.00008   0.00000   0.00000   0.00000   2.09391
    A3        2.09476  -0.00000   0.00000   0.00000   0.00000   2.09476
    D3        3.13823   0.00003   0.00000   0.00000   0.00000   3.13823
    R2        2.03750   0.00005   0.00000   0.00000   0.00000   2.03750
    R1        2.03750   0.00004   0.00000   0.00000   0.00000   2.03750
   RTS       18.89726  -0.00000   0.00000   0.00000   0.00000  18.89726
         Item               Value     Threshold  Converged?
 Maximum Force            0.000000     0.000450     YES
 RMS     Force            0.000000     0.000300     YES
 Maximum Displacement     0.000000     0.001800     YES
 RMS     Displacement     0.000000     0.001200     YES
 Predicted change in Energy=-5.441304D-16
 Optimization completed.
    -- Stationary point found.
                       ----------------------------
                       !   Optimized Parameters   !
                       ! (Angstroms and Degrees)  !
 ----------------------                            ----------------------
 !      Name          Value   Derivative information (Atomic Units)     !
 ------------------------------------------------------------------------
 !      BABS1       89.7682   -DE/DX =    0.0                           !
 !      AABS1       89.7929   -DE/DX =    0.0                           !
 !       R3          1.0782   -DE/DX =    0.0                           !
 !       A2        119.9721   -DE/DX =    0.0001                        !
 !       A3        120.0207   -DE/DX =    0.0                           !
 !       D3        179.8076   -DE/DX =    0.0                           !
 !       R2          1.0782   -DE/DX =    0.0001                        !
 !       R1          1.0782   -DE/DX =    0.0                           !
 !       RTS         10.0     -DE/DX =    0.0                           !
 ------------------------------------------------------------------------
 GradGradGradGradGradGradGradGradGradGradGradGradGradGradGradGradGradGrad

 ---------------------------------------------------------------------------------------------------
                            Z-MATRIX (ANGSTROMS AND DEGREES)
   CD    Cent   Atom    N1       Length/X        N2       Alpha/Y        N3        Beta/Z          J
 ---------------------------------------------------------------------------------------------------
      1      1  C 
      2      2  H        1   1.078200(     1)
      3      3  H        1   1.078200(     2)      2  119.972(     5)
      4      4  H        1   1.078200(     3)      2  120.021(     6)      3  179.808(     8)      0
      5      5  H        1  10.000000(     4)      2   89.793(     7)      3   89.768(     9)      0
 ---------------------------------------------------------------------------------------------------
                         Z-Matrix orientation:                         
 ---------------------------------------------------------------------
 Center     Atomic      Atomic             Coordinates (Angstroms)
 Number     Number       Type             X           Y           Z
 ---------------------------------------------------------------------
      1          6           0        0.000000    0.000000    0.000000
      2          1           0        0.000000    0.000000    1.078200
      3          1           0        0.934011    0.000000   -0.538645
      4          1           0       -0.933548   -0.003135   -0.539437
      5          1           0        0.040456   -9.999853    0.036146
 ---------------------------------------------------------------------
                    Distance matrix (angstroms):
                    1          2          3          4          5
     1  C    0.000000
     2  H    1.078200   0.000000
     3  H    1.078200   1.867235   0.000000
     4  H    1.078200   1.867692   1.867562   0.000000
     5  H   10.000000  10.054082  10.056136  10.060534   0.000000
 Symmetry turned off by external request.
 Stoichiometry    CH4(3)
 Framework group  C1[X(CH4)]
 Deg. of freedom     9
 Full point group                 C1      NOp   1
 Rotational constants (GHZ):    143.7855816      5.2534388      5.2533840

 Test job not archived.
 1\1\GINC-NODE-6-10\POpt\UwB97XD\Aug-CC-pVTZ\C1H4(3)\CAVALLOTTI\03-Jun-
 2023\1\\# uwb97xd/aug-cc-pvtz opt=(noeig,intern,maxcyc=50) # int=ultra
 fine nosym iop(7/33=1)\\geom 0\\0,3\C\H,1,R1\H,1,R2,2,A2\H,1,R3,2,A3,3
 ,D3,0\H,1,RTS,2,AABS1,3,BABS1,0\\BABS1=89.7682\AABS1=89.7929\R3=1.0782
 \A2=119.9721\A3=120.0207\D3=179.8076\R2=1.0782\R1=1.0782\RTS=10.\\Vers
 ion=EM64L-G09RevD.01\HF=-40.3419793\S2=2.003964\S2-1=0.\S2A=2.000006\R
 MSD=3.163e-09\RMSF=3.244e-05\Dipole=0.0000384,-0.0007014,0.0000167\Qua
 drupole=0.4723347,-0.9443602,0.4720255,0.0024004,0.0006534,0.0013996\P
 G=C01 [X(C1H4)]\\@


 SOME THINGS ARE EASY, THEY ARE ONLY HARD TO DO.
            -- A. EINSTEIN TO J. O. HIRSCHFELDER
 THE ONLY TROUBLE WITH A SURE THING IS THE UNCERTAINTY.
     -- FROM A TEABAG (BELONGING TO W.H.?)
 Job cpu time:       0 days  0 hours  2 minutes  2.4 seconds.
 File lengths (MBytes):  RWF=     66 Int=      0 D2E=      0 Chk=      3 Scr=      1
 Normal termination of Gaussian 09 at Sat Jun  3 09:00:24 2023.
