 Entering Gaussian System, Link 0=g09
 Input=geom.com
 Output=geom.log
 Initial command:
 /software/cinetica/g09d1/g09d01/d01/build-node-6-2-59348/src/main/l1.exe "/scratch/cc/140693/Gau-154919.inp" -scrdir="/scratch/cc/140693/"
 Entering Link 1 = /software/cinetica/g09d1/g09d01/d01/build-node-6-2-59348/src/main/l1.exe PID=    154920.
  
 Copyright (c) 1988,1990,1992,1993,1995,1998,2003,2009,2013,
            Gaussian, Inc.  All Rights Reserved.
  
 This is part of the Gaussian(R) 09 program.  It is based on
 the Gaussian(R) 03 system (copyright 2003, Gaussian, Inc.),
 the Gaussian(R) 98 system (copyright 1998, Gaussian, Inc.),
 the Gaussian(R) 94 system (copyright 1995, Gaussian, Inc.),
 the Gaussian 92(TM) system (copyright 1992, Gaussian, Inc.),
 the Gaussian 90(TM) system (copyright 1990, Gaussian, Inc.),
 the Gaussian 88(TM) system (copyright 1988, Gaussian, Inc.),
 the Gaussian 86(TM) system (copyright 1986, Carnegie Mellon
 University), and the Gaussian 82(TM) system (copyright 1983,
 Carnegie Mellon University). Gaussian is a federally registered
 trademark of Gaussian, Inc.
  
 This software contains proprietary and confidential information,
 including trade secrets, belonging to Gaussian, Inc.
  
 This software is provided under written license and may be
 used, copied, transmitted, or stored only in accord with that
 written license.
  
 The following legend is applicable only to US Government
 contracts under FAR:
  
                    RESTRICTED RIGHTS LEGEND
  
 Use, reproduction and disclosure by the US Government is
 subject to restrictions as set forth in subparagraphs (a)
 and (c) of the Commercial Computer Software - Restricted
 Rights clause in FAR 52.227-19.
  
 Gaussian, Inc.
 340 Quinnipiac St., Bldg. 40, Wallingford CT 06492
  
  
 ---------------------------------------------------------------
 Warning -- This program may not be used in any manner that
 competes with the business of Gaussian, Inc. or will provide
 assistance to any competitor of Gaussian, Inc.  The licensee
 of this program is prohibited from giving any competitor of
 Gaussian, Inc. access to this program.  By using this program,
 the user acknowledges that Gaussian, Inc. is engaged in the
 business of creating and licensing software in the field of
 computational chemistry and represents and warrants to the
 licensee that it is not a competitor of Gaussian, Inc. and that
 it will not use this program in any manner prohibited above.
 ---------------------------------------------------------------
  

 Cite this work as:
 Gaussian 09, Revision D.01,
 M. J. Frisch, G. W. Trucks, H. B. Schlegel, G. E. Scuseria, 
 M. A. Robb, J. R. Cheeseman, G. Scalmani, V. Barone, B. Mennucci, 
 G. A. Petersson, H. Nakatsuji, M. Caricato, X. Li, H. P. Hratchian, 
 A. F. Izmaylov, J. Bloino, G. Zheng, J. L. Sonnenberg, M. Hada, 
 M. Ehara, K. Toyota, R. Fukuda, J. Hasegawa, M. Ishida, T. Nakajima, 
 Y. Honda, O. Kitao, H. Nakai, T. Vreven, J. A. Montgomery, Jr., 
 J. E. Peralta, F. Ogliaro, M. Bearpark, J. J. Heyd, E. Brothers, 
 K. N. Kudin, V. N. Staroverov, T. Keith, R. Kobayashi, J. Normand, 
 K. Raghavachari, A. Rendell, J. C. Burant, S. S. Iyengar, J. Tomasi, 
 M. Cossi, N. Rega, J. M. Millam, M. Klene, J. E. Knox, J. B. Cross, 
 V. Bakken, C. Adamo, J. Jaramillo, R. Gomperts, R. E. Stratmann, 
 O. Yazyev, A. J. Austin, R. Cammi, C. Pomelli, J. W. Ochterski, 
 R. L. Martin, K. Morokuma, V. G. Zakrzewski, G. A. Voth, 
 P. Salvador, J. J. Dannenberg, S. Dapprich, A. D. Daniels, 
 O. Farkas, J. B. Foresman, J. V. Ortiz, J. Cioslowski, 
 and D. J. Fox, Gaussian, Inc., Wallingford CT, 2013.
 
 ******************************************
 Gaussian 09:  EM64L-G09RevD.01 24-Apr-2013
                 3-Jun-2023 
 ******************************************
 %mem=400MW
 %chk=tmp
 %NProcShared= 32
 Will use up to   32 processors via shared memory.
 ----------------------------------------------------------------------
 # uwb97xd/aug-cc-pvtz opt=(noeig,intern,maxcyc=50) # int=ultrafine nos
 ym freq iop(7/33=1)
 ----------------------------------------------------------------------
 1/6=50,10=7,11=1,14=-1,18=40,26=4,38=1/1,3;
 2/12=2,15=1,17=6,18=5,29=3,40=1/2;
 3/5=16,6=1,7=10,11=2,16=1,25=1,30=1,71=1,74=-58,75=-5,116=2/1,2,3;
 4//1;
 5/5=2,38=5/2;
 6/7=2,8=2,9=2,10=2,28=1/1;
 7/29=1,30=1,33=1/1,2,3,16;
 1/6=50,10=7,11=1,14=-1,18=40,26=4/3(2);
 2/15=1,29=3/2;
 99//99;
 2/15=1,29=3/2;
 3/5=16,6=1,7=10,11=2,16=1,25=1,30=1,71=1,74=-58,75=-5,116=2/1,2,3;
 4/5=5,16=3,69=1/1;
 5/5=2,38=5/2;
 7/30=1,33=1/1,2,3,16;
 1/6=50,11=1,14=-1,18=40,26=4/3(-5);
 2/15=1,29=3/2;
 6/7=2,8=2,9=2,10=2,19=2,28=1/1;
 99/9=1/99;
 ------
 geom 0
 ------
 Symbolic Z-matrix:
 Charge =  0 Multiplicity = 3
 C1
 H2                   C1   R1
 H3                   C1   R2       H2   A2
 H4                   C1   R3       H2   A3       H3   D3       0
 H21                  C1   BB       H2   ANG1     H3   DH1      0
       Variables:
  R1                    1.0791                   
  R2                    1.0791                   
  R3                    1.0791                   
  A2                  117.1143                   
  A3                  117.1221                   
  D3                  213.1119                   
  DH1                 106.5501                   
  ANG1                 99.8829                   
       Constants:
  BB                   10.                       
 

 GradGradGradGradGradGradGradGradGradGradGradGradGradGradGradGradGradGrad
 Berny optimization.
 Initialization pass.
                       ----------------------------
                       !    Initial Parameters    !
                       ! (Angstroms and Degrees)  !
 ----------------------                            ----------------------
 !      Name          Value   Derivative information (Atomic Units)     !
 ------------------------------------------------------------------------
 !       R1          1.0791   estimate D2E/DX2                          !
 !       R2          1.0791   estimate D2E/DX2                          !
 !       R3          1.0791   estimate D2E/DX2                          !
 !       A2        117.1143   estimate D2E/DX2                          !
 !       A3        117.1221   estimate D2E/DX2                          !
 !       D3        213.1119   estimate D2E/DX2                          !
 !       DH1       106.5501   estimate D2E/DX2                          !
 !      ANG1        99.8829   estimate D2E/DX2                          !
 !       BB          10.0     Frozen                                    !
 ------------------------------------------------------------------------
 Trust Radius=3.00D-01 FncErr=1.00D-07 GrdErr=1.00D-06
 Number of steps in this run=     50 maximum allowed number of steps=    100.
 GradGradGradGradGradGradGradGradGradGradGradGradGradGradGradGradGradGrad

 ---------------------------------------------------------------------------------------------------
                            Z-MATRIX (ANGSTROMS AND DEGREES)
   CD    Cent   Atom    N1       Length/X        N2       Alpha/Y        N3        Beta/Z          J
 ---------------------------------------------------------------------------------------------------
      1      1  C 
      2      2  H        1   1.079100(     1)
      3      3  H        1   1.079100(     2)      2  117.114(     5)
      4      4  H        1   1.079100(     3)      2  117.122(     6)      3  213.112(     8)      0
      5      5  H        1  10.000000(     4)      2   99.883(     7)      3  106.550(     9)      0
 ---------------------------------------------------------------------------------------------------
                         Z-Matrix orientation:                         
 ---------------------------------------------------------------------
 Center     Atomic      Atomic             Coordinates (Angstroms)
 Number     Number       Type             X           Y           Z
 ---------------------------------------------------------------------
      1          6           0        0.000000    0.000000    0.000000
      2          1           0        0.000000    0.000000    1.079100
      3          1           0        0.960506    0.000000   -0.491818
      4          1           0       -0.804469    0.524665   -0.491949
      5          1           0       -2.806266   -9.443464   -1.716351
 ---------------------------------------------------------------------
                    Distance matrix (angstroms):
                    1          2          3          4          5
     1  C    0.000000
     2  H    1.079100   0.000000
     3  H    1.079100   1.841292   0.000000
     4  H    1.079100   1.841369   1.841306   0.000000
     5  H   10.000000  10.240541  10.240462  10.240603   0.000000
 Symmetry turned off by external request.
 This structure is nearly, but not quite of a higher symmetry.
 Consider Symm=Loose if the higher symmetry is desired.
 Stoichiometry    CH4(3)
 Framework group  C1[X(CH4)]
 Deg. of freedom     9
 Full point group                 C1      NOp   1
 Rotational constants (GHZ):    147.9014650      5.2131392      5.2131298
 Standard basis: Aug-CC-pVTZ (5D, 7F)
   138 basis functions,   180 primitive gaussians,   155 cartesian basis functions
     6 alpha electrons        4 beta electrons
       nuclear repulsion energy        10.1616759481 Hartrees.
 NAtoms=    5 NActive=    5 NUniq=    5 SFac= 1.00D+00 NAtFMM=   60 NAOKFM=F Big=F
 Integral buffers will be    131072 words long.
 Raffenetti 2 integral format.
 Two-electron integral symmetry is turned off.
 Nuclear repulsion after empirical dispersion term =       10.1614362463 Hartrees.
 One-electron integrals computed using PRISM.
 NBasis=   138 RedAO= T EigKep=  1.11D-04  NBF=   138
 NBsUse=   138 1.00D-06 EigRej= -1.00D+00 NBFU=   138
 ExpMin= 2.53D-02 ExpMax= 8.24D+03 ExpMxC= 2.81D+02 IAcc=3 IRadAn=         5 AccDes= 0.00D+00
 Harris functional with IExCor= 4639 and IRadAn=       5 diagonalized for initial guess.
 HarFok:  IExCor= 4639 AccDes= 0.00D+00 IRadAn=         5 IDoV= 1 UseB2=F ITyADJ=14
 ICtDFT=  3500011 ScaDFX=  1.000000  1.000000  1.000000  1.000000
 FoFCou: FMM=F IPFlag=           0 FMFlag=      100000 FMFlg1=           0
         NFxFlg=           0 DoJE=T BraDBF=F KetDBF=T FulRan=T
         wScrn=  0.000000 ICntrl=     500 IOpCl=  0 I1Cent=   200000004 NGrid=           0
         NMat0=    1 NMatS0=      1 NMatT0=    0 NMatD0=    1 NMtDS0=    0 NMtDT0=    0
 Symmetry not used in FoFCou.
 Initial guess <Sx>= 0.0000 <Sy>= 0.0000 <Sz>= 1.0000 <S**2>= 2.0000 S= 1.0000
 Keep R1 and R2 ints in memory in canonical form, NReq=186081203.
 Requested convergence on RMS density matrix=1.00D-08 within 128 cycles.
 Requested convergence on MAX density matrix=1.00D-06.
 Requested convergence on             energy=1.00D-06.
 No special actions if energy rises.
 SCF Done:  E(UwB97XD) =  -40.3400204294     A.U. after   10 cycles
            NFock= 10  Conv=0.66D-08     -V/T= 2.0067
 <Sx>= 0.0000 <Sy>= 0.0000 <Sz>= 1.0000 <S**2>= 2.0036 S= 1.0012
 <L.S>=  0.00000000000    
 Annihilation of the first spin contaminant:
 S**2 before annihilation     2.0036,   after     2.0000

 **********************************************************************

            Population analysis using the SCF density.

 **********************************************************************

 Alpha  occ. eigenvalues --  -10.29711  -0.78854  -0.50565  -0.50564  -0.40568
 Alpha  occ. eigenvalues --   -0.32402
 Alpha virt. eigenvalues --    0.03008   0.04958   0.04959   0.05408   0.09013
 Alpha virt. eigenvalues --    0.12996   0.12996   0.13291   0.19451   0.19451
 Alpha virt. eigenvalues --    0.19459   0.20375   0.20375   0.22490   0.24592
 Alpha virt. eigenvalues --    0.24593   0.31541   0.32364   0.32365   0.34575
 Alpha virt. eigenvalues --    0.35846   0.37911   0.37973   0.37973   0.40226
 Alpha virt. eigenvalues --    0.40226   0.42022   0.46977   0.46977   0.56229
 Alpha virt. eigenvalues --    0.60134   0.61019   0.61020   0.74803   0.74804
 Alpha virt. eigenvalues --    0.75966   0.75966   0.75968   0.75968   0.75969
 Alpha virt. eigenvalues --    0.79828   0.79828   0.81698   0.84844   0.88654
 Alpha virt. eigenvalues --    0.89936   0.89936   0.89944   0.92199   0.92199
 Alpha virt. eigenvalues --    0.93235   0.94350   0.94350   1.03494   1.03812
 Alpha virt. eigenvalues --    1.03814   1.05812   1.06891   1.06892   1.12652
 Alpha virt. eigenvalues --    1.12653   1.23945   1.37122   1.37123   1.44479
 Alpha virt. eigenvalues --    1.47451   1.47453   1.50826   1.50826   1.51578
 Alpha virt. eigenvalues --    1.54047   1.70875   1.74285   1.74286   1.89900
 Alpha virt. eigenvalues --    1.89902   1.90691   2.02901   2.02903   2.04853
 Alpha virt. eigenvalues --    2.34978   2.71079   2.77158   2.77158   2.88446
 Alpha virt. eigenvalues --    3.05842   3.05843   3.29731   3.35139   3.35141
 Alpha virt. eigenvalues --    3.37753   3.38233   3.38234   3.43981   3.46660
 Alpha virt. eigenvalues --    3.46661   3.64265   3.64265   3.64265   3.64265
 Alpha virt. eigenvalues --    3.64266   3.69022   3.72737   3.72737   3.74872
 Alpha virt. eigenvalues --    3.79975   3.79975   3.79977   3.94029   3.94029
 Alpha virt. eigenvalues --    4.16483   4.16980   4.16983   4.42354   4.47612
 Alpha virt. eigenvalues --    4.47613   4.64592   4.64593   4.70142   4.84225
 Alpha virt. eigenvalues --    4.99737   4.99743   5.05477   5.05478   5.19651
 Alpha virt. eigenvalues --    5.47477   5.47483   5.85948   5.92274   6.18230
 Alpha virt. eigenvalues --    6.18237  15.90646
  Beta  occ. eigenvalues --  -10.28564  -0.74536  -0.49283  -0.49282
  Beta virt. eigenvalues --   -0.03879  -0.00600   0.04306   0.05652   0.05653
  Beta virt. eigenvalues --    0.12691   0.13982   0.13983   0.14046   0.14488
  Beta virt. eigenvalues --    0.20691   0.20691   0.24543   0.25195   0.25195
  Beta virt. eigenvalues --    0.25472   0.25472   0.25483   0.33111   0.33111
  Beta virt. eigenvalues --    0.33944   0.34659   0.36947   0.38587   0.38678
  Beta virt. eigenvalues --    0.38678   0.40791   0.40791   0.47348   0.47348
  Beta virt. eigenvalues --    0.52254   0.59272   0.61315   0.61316   0.62584
  Beta virt. eigenvalues --    0.75539   0.75540   0.78617   0.78617   0.78619
  Beta virt. eigenvalues --    0.78619   0.78620   0.81102   0.81102   0.81763
  Beta virt. eigenvalues --    0.86031   0.89742   0.92807   0.92807   0.93761
  Beta virt. eigenvalues --    0.95253   0.95253   0.95507   0.95507   0.95520
  Beta virt. eigenvalues --    1.03274   1.03817   1.03819   1.06453   1.07115
  Beta virt. eigenvalues --    1.07117   1.13556   1.13557   1.24042   1.37375
  Beta virt. eigenvalues --    1.37376   1.47406   1.47866   1.47867   1.51592
  Beta virt. eigenvalues --    1.51592   1.51718   1.54201   1.73126   1.75194
  Beta virt. eigenvalues --    1.75195   1.90573   1.91089   1.91091   2.03250
  Beta virt. eigenvalues --    2.03252   2.06896   2.68047   2.76033   2.78351
  Beta virt. eigenvalues --    2.78352   2.91991   3.08661   3.08665   3.32954
  Beta virt. eigenvalues --    3.37996   3.37999   3.38278   3.42203   3.42204
  Beta virt. eigenvalues --    3.48208   3.48211   3.48572   3.70823   3.70824
  Beta virt. eigenvalues --    3.70828   3.70828   3.70830   3.70863   3.73412
  Beta virt. eigenvalues --    3.73413   3.75271   3.94025   3.94044   3.94177
  Beta virt. eigenvalues --    3.95452   3.95452   4.17702   4.18526   4.18529
  Beta virt. eigenvalues --    4.43311   4.47801   4.47801   4.65143   4.65145
  Beta virt. eigenvalues --    4.69887   4.85833   5.00202   5.00208   5.07971
  Beta virt. eigenvalues --    5.07971   5.20829   5.48280   5.48285   5.87578
  Beta virt. eigenvalues --    5.93449   6.19096   6.19105  15.93218
          Condensed to atoms (all electrons):
               1          2          3          4          5
     1  C    5.916529   0.352952   0.352910   0.353045  -0.000000
     2  H    0.352952   0.303687   0.009099   0.009078  -0.000000
     3  H    0.352910   0.009099   0.303641   0.009086  -0.000000
     4  H    0.353045   0.009078   0.009086   0.303803  -0.000000
     5  H   -0.000000  -0.000000  -0.000000  -0.000000   1.000002
          Atomic-Atomic Spin Densities.
               1          2          3          4          5
     1  C    0.990872   0.011675   0.011710   0.011602  -0.000000
     2  H    0.011675  -0.027857   0.003790   0.003807  -0.000000
     3  H    0.011710   0.003790  -0.027833   0.003802  -0.000000
     4  H    0.011602   0.003807   0.003802  -0.027953  -0.000000
     5  H   -0.000000  -0.000000  -0.000000  -0.000000   1.000002
 Mulliken charges and spin densities:
               1          2
     1  C   -0.975436   1.025858
     2  H    0.325185  -0.008585
     3  H    0.325264  -0.008531
     4  H    0.324988  -0.008743
     5  H   -0.000001   1.000001
 Sum of Mulliken charges =  -0.00000   2.00000
 Mulliken charges and spin densities with hydrogens summed into heavy atoms:
               1          2
     1  C   -0.000000   2.000000
 Electronic spatial extent (au):  <R**2>=            390.2068
 Charge=             -0.0000 electrons
 Dipole moment (field-independent basis, Debye):
    X=              0.1042    Y=              0.3505    Z=              0.0637  Tot=              0.3712
 Quadrupole moment (field-independent basis, Debye-Ang):
   XX=             -8.8305   YY=            -10.1616   ZZ=             -8.7496
   XY=             -0.4340   XZ=             -0.0787   YZ=             -0.2654
 Traceless Quadrupole moment (field-independent basis, Debye-Ang):
   XX=              0.4168   YY=             -0.9144   ZZ=              0.4976
   XY=             -0.4340   XZ=             -0.0787   YZ=             -0.2654
 Octapole moment (field-independent basis, Debye-Ang**2):
  XXX=             12.0020  YYY=             39.6089  ZZZ=              8.0828  XYY=              3.7539
  XXY=             13.4124  XXZ=              1.6568  XZZ=              3.9221  YZZ=             13.1990
  YYZ=              2.2960  XYZ=              0.2084
 Hexadecapole moment (field-independent basis, Debye-Ang**3):
 XXXX=            -83.9626 YYYY=           -777.3680 ZZZZ=            -41.8788 XXXY=           -112.7573
 XXXZ=            -20.6803 YYYX=           -113.2567 YYYZ=            -69.2694 ZZZX=            -20.4410
 ZZZY=            -68.7870 XXYY=           -143.4082 XXZZ=            -21.0884 YYZZ=           -136.4580
 XXYZ=            -23.1764 YYXZ=             -6.7914 ZZXY=            -37.6045
 N-N= 1.016143624627D+01 E-N=-1.132079603249D+02  KE= 4.007168244979D+01
                          Isotropic Fermi Contact Couplings
        Atom                 a.u.       MegaHertz       Gauss      10(-4) cm-1
     1  C(13)              0.08323      46.78435      16.69382      15.60558
     2  H(1)              -0.01093     -24.42824      -8.71660      -8.14838
     3  H(1)              -0.01093     -24.42396      -8.71508      -8.14696
     4  H(1)              -0.01094     -24.44179      -8.72144      -8.15290
     5  H(1)               0.29165     651.81419     232.58350     217.42181
 --------------------------------------------------------
       Center         ----  Spin Dipole Couplings  ----
                      3XX-RR        3YY-RR        3ZZ-RR
 --------------------------------------------------------
     1   Atom       -0.420230      0.921957     -0.501727
     2   Atom       -0.068772     -0.006263      0.075036
     3   Atom        0.045480     -0.006264     -0.039217
     4   Atom        0.020432      0.018775     -0.039206
     5   Atom       -0.000120      0.000264     -0.000144
 --------------------------------------------------------
                        XY            XZ            YZ
 --------------------------------------------------------
     1   Atom        0.437692      0.079550      0.267594
     2   Atom        0.020383      0.000396      0.001330
     3   Atom        0.010463     -0.058115      0.017541
     4   Atom       -0.027897      0.058253     -0.017061
     5   Atom        0.000125      0.000023      0.000077
 --------------------------------------------------------


 ---------------------------------------------------------------------------------
              Anisotropic Spin Dipole Couplings in Principal Axis System
 ---------------------------------------------------------------------------------

       Atom             a.u.   MegaHertz   Gauss  10(-4) cm-1        Axes

              Baa    -0.5504   -73.853   -26.353   -24.635  0.0111 -0.1820  0.9832
     1 C(13)  Bbb    -0.5503   -73.851   -26.352   -24.634  0.9597 -0.2741 -0.0616
              Bcc     1.1007   147.705    52.705    49.269  0.2807  0.9443  0.1716
 
              Baa    -0.0748   -39.927   -14.247   -13.318  0.9585 -0.2849 -0.0000
     2 H(1)   Bbb    -0.0002    -0.122    -0.044    -0.041  0.2849  0.9584 -0.0184
              Bcc     0.0751    40.049    14.291    13.359  0.0053  0.0177  0.9998
 
              Baa    -0.0748   -39.927   -14.247   -13.318  0.4369 -0.2849  0.8532
     3 H(1)   Bbb    -0.0002    -0.123    -0.044    -0.041  0.1136  0.9584  0.2619
              Bcc     0.0751    40.050    14.291    13.359  0.8923  0.0175 -0.4511
 
              Baa    -0.0748   -39.925   -14.246   -13.318 -0.5217  0.0000  0.8531
     4 H(1)   Bbb    -0.0002    -0.120    -0.043    -0.040  0.4286  0.8646  0.2621
              Bcc     0.0751    40.045    14.289    13.358  0.7376 -0.5024  0.4511
 
              Baa    -0.0002    -0.084    -0.030    -0.028  0.5582 -0.3060  0.7712
     5 H(1)   Bbb    -0.0002    -0.084    -0.030    -0.028  0.7808 -0.1206 -0.6130
              Bcc     0.0003     0.168     0.060     0.056  0.2806  0.9443  0.1716
 

 ---------------------------------------------------------------------------------

 DipInt: DoE/N= T T RetVal/Mat= T F Init=T NMatP=  1 IDeriv=0 Min/MaxMlt=  1  1
 Entering OneElI...
 Multipole integrals L=1 to 1 MinM= 0 MaxM= 0.
 Requested accuracy = 0.1000D-12
 PrsmSu:  NPrtUS=   1 ThrOK=F IAlg=1 NPAlg=1 LenDen=           0.
 Prism:   IPart=     0 DynPar=F LinDyn=F Incr=          11.
 PRISM was handed   419330724 working-precision words and  1107 shell-pairs
 IPart=  0 NShTot=        1107 NBatch=          37 AvBLen=        29.9
 PrSmSu:  NxtVal=             12.
 Entering OneElI...
 Calculate overlap and kinetic energy integrals
    NBasis = 155  MinDer = 1  MaxDer = 1
 Requested accuracy = 0.1000D-12
 PrsmSu:  NPrtUS=  32 ThrOK=T IAlg=1 NPAlg=1 LenDen=           0.
 Prism:   IPart=     0 DynPar=F LinDyn=F Incr=           1.
 PRISM was handed    13085285 working-precision words and  1127 shell-pairs
 PRISM was handed    13085285 working-precision words and  1127 shell-pairs
 PRISM was handed    13085285 working-precision words and  1127 shell-pairs
 PRISM was handed    13085285 working-precision words and  1127 shell-pairs
 PRISM was handed    13085285 working-precision words and  1127 shell-pairs
 PRISM was handed    13085285 working-precision words and  1127 shell-pairs
 PRISM was handed    13085285 working-precision words and  1127 shell-pairs
 PRISM was handed    13085285 working-precision words and  1127 shell-pairs
 PRISM was handed    13085285 working-precision words and  1127 shell-pairs
 PRISM was handed    13085285 working-precision words and  1127 shell-pairs
 PRISM was handed    13085285 working-precision words and  1127 shell-pairs
 PRISM was handed    13085285 working-precision words and  1127 shell-pairs
 PRISM was handed    13085285 working-precision words and  1127 shell-pairs
 PRISM was handed    13085285 working-precision words and  1127 shell-pairs
 PRISM was handed    13085285 working-precision words and  1127 shell-pairs
 PRISM was handed    13085285 working-precision words and  1127 shell-pairs
 PRISM was handed    13085285 working-precision words and  1127 shell-pairs
 PRISM was handed    13085285 working-precision words and  1127 shell-pairs
 PRISM was handed    13085285 working-precision words and  1127 shell-pairs
 PRISM was handed    13085285 working-precision words and  1127 shell-pairs
 PRISM was handed    13085285 working-precision words and  1127 shell-pairs
 PRISM was handed    13085285 working-precision words and  1127 shell-pairs
 PRISM was handed    13085285 working-precision words and  1127 shell-pairs
 PRISM was handed    13085285 working-precision words and  1127 shell-pairs
 PRISM was handed    13085285 working-precision words and  1127 shell-pairs
 PRISM was handed    13085285 working-precision words and  1127 shell-pairs
 PRISM was handed    13085285 working-precision words and  1127 shell-pairs
 PRISM was handed    13085285 working-precision words and  1127 shell-pairs
 PRISM was handed    13085285 working-precision words and  1127 shell-pairs
 PRISM was handed    13085285 working-precision words and  1127 shell-pairs
 PRISM was handed    13085285 working-precision words and  1127 shell-pairs
 PRISM was handed    13085285 working-precision words and  1127 shell-pairs
 IPart=  0 NShTot=          59 NBatch=          36 AvBLen=         1.6
 IPart=  9 NShTot=          39 NBatch=          17 AvBLen=         2.3
 IPart= 30 NShTot=          23 NBatch=           8 AvBLen=         2.9
 IPart= 22 NShTot=          28 NBatch=          11 AvBLen=         2.5
 IPart=  4 NShTot=          44 NBatch=          21 AvBLen=         2.1
 IPart= 25 NShTot=          28 NBatch=          11 AvBLen=         2.5
 IPart= 29 NShTot=          24 NBatch=           9 AvBLen=         2.7
 IPart= 20 NShTot=          30 NBatch=          11 AvBLen=         2.7
 IPart=  3 NShTot=          45 NBatch=          22 AvBLen=         2.0
 IPart= 12 NShTot=          38 NBatch=          17 AvBLen=         2.2
 IPart= 27 NShTot=          27 NBatch=          10 AvBLen=         2.7
 IPart=  8 NShTot=          42 NBatch=          20 AvBLen=         2.1
 IPart= 14 NShTot=          33 NBatch=          12 AvBLen=         2.8
 IPart= 18 NShTot=          32 NBatch=          12 AvBLen=         2.7
 IPart= 10 NShTot=          38 NBatch=          17 AvBLen=         2.2
 IPart= 31 NShTot=          23 NBatch=           8 AvBLen=         2.9
 IPart= 16 NShTot=          33 NBatch=          12 AvBLen=         2.8
 IPart=  6 NShTot=          43 NBatch=          20 AvBLen=         2.1
 IPart=  5 NShTot=          44 NBatch=          21 AvBLen=         2.1
 IPart= 11 NShTot=          38 NBatch=          17 AvBLen=         2.2
 IPart= 26 NShTot=          27 NBatch=          10 AvBLen=         2.7
 IPart=  2 NShTot=          50 NBatch=          27 AvBLen=         1.9
 IPart=  7 NShTot=          43 NBatch=          20 AvBLen=         2.1
 IPart= 19 NShTot=          31 NBatch=          11 AvBLen=         2.8
 IPart= 28 NShTot=          26 NBatch=          10 AvBLen=         2.6
 IPart= 13 NShTot=          35 NBatch=          14 AvBLen=         2.5
 IPart= 23 NShTot=          28 NBatch=          11 AvBLen=         2.5
 IPart= 21 NShTot=          29 NBatch=          11 AvBLen=         2.6
 IPart=  1 NShTot=          53 NBatch=          30 AvBLen=         1.8
 IPart= 24 NShTot=          28 NBatch=          11 AvBLen=         2.5
 IPart= 15 NShTot=          33 NBatch=          12 AvBLen=         2.8
 IPart= 17 NShTot=          33 NBatch=          12 AvBLen=         2.8
 PrSmSu:  NxtVal=             33.
 Entering OneElI...
 Calculate potential energy integrals
    NBasis = 155  MinDer = 1  MaxDer = 1
 Requested accuracy = 0.1000D-12
 PrsmSu:  NPrtUS=  32 ThrOK=T IAlg=1 NPAlg=1 LenDen=           0.
 Prism:   IPart=     0 DynPar=F LinDyn=F Incr=           1.
 PRISM was handed    13087714 working-precision words and   999 shell-pairs
 PRISM was handed    13087714 working-precision words and   999 shell-pairs
 PRISM was handed    13087714 working-precision words and   999 shell-pairs
 PRISM was handed    13087714 working-precision words and   999 shell-pairs
 PRISM was handed    13087714 working-precision words and   999 shell-pairs
 PRISM was handed    13087714 working-precision words and   999 shell-pairs
 PRISM was handed    13087714 working-precision words and   999 shell-pairs
 PRISM was handed    13087714 working-precision words and   999 shell-pairs
 PRISM was handed    13087714 working-precision words and   999 shell-pairs
 PRISM was handed    13087714 working-precision words and   999 shell-pairs
 PRISM was handed    13087714 working-precision words and   999 shell-pairs
 PRISM was handed    13087714 working-precision words and   999 shell-pairs
 PRISM was handed    13087714 working-precision words and   999 shell-pairs
 PRISM was handed    13087714 working-precision words and   999 shell-pairs
 PRISM was handed    13087714 working-precision words and   999 shell-pairs
 PRISM was handed    13087714 working-precision words and   999 shell-pairs
 PRISM was handed    13087714 working-precision words and   999 shell-pairs
 PRISM was handed    13087714 working-precision words and   999 shell-pairs
 PRISM was handed    13087714 working-precision words and   999 shell-pairs
 PRISM was handed    13087714 working-precision words and   999 shell-pairs
 PRISM was handed    13087714 working-precision words and   999 shell-pairs
 PRISM was handed    13087714 working-precision words and   999 shell-pairs
 PRISM was handed    13087714 working-precision words and   999 shell-pairs
 PRISM was handed    13087714 working-precision words and   999 shell-pairs
 PRISM was handed    13087714 working-precision words and   999 shell-pairs
 PRISM was handed    13087714 working-precision words and   999 shell-pairs
 PRISM was handed    13087714 working-precision words and   999 shell-pairs
 PRISM was handed    13087714 working-precision words and   999 shell-pairs
 PRISM was handed    13087714 working-precision words and   999 shell-pairs
 PRISM was handed    13087714 working-precision words and   999 shell-pairs
 PRISM was handed    13087714 working-precision words and   999 shell-pairs
 PRISM was handed    13087714 working-precision words and   999 shell-pairs
 IPart= 21 NShTot=         125 NBatch=          25 AvBLen=         5.0
 IPart= 23 NShTot=         120 NBatch=          24 AvBLen=         5.0
 IPart= 19 NShTot=         135 NBatch=          27 AvBLen=         5.0
 IPart= 15 NShTot=         145 NBatch=          29 AvBLen=         5.0
 IPart= 17 NShTot=         140 NBatch=          28 AvBLen=         5.0
 IPart=  7 NShTot=         195 NBatch=          39 AvBLen=         5.0
 IPart= 24 NShTot=         110 NBatch=          22 AvBLen=         5.0
 IPart= 13 NShTot=         150 NBatch=          30 AvBLen=         5.0
 IPart=  1 NShTot=         250 NBatch=          50 AvBLen=         5.0
 IPart= 26 NShTot=         110 NBatch=          22 AvBLen=         5.0
 IPart=  9 NShTot=         180 NBatch=          36 AvBLen=         5.0
 IPart=  5 NShTot=         200 NBatch=          40 AvBLen=         5.0
 IPart= 11 NShTot=         180 NBatch=          36 AvBLen=         5.0
 IPart= 28 NShTot=         105 NBatch=          21 AvBLen=         5.0
 IPart=  2 NShTot=         235 NBatch=          47 AvBLen=         5.0
 IPart= 22 NShTot=         125 NBatch=          25 AvBLen=         5.0
 IPart= 31 NShTot=         100 NBatch=          20 AvBLen=         5.0
 IPart= 12 NShTot=         160 NBatch=          32 AvBLen=         5.0
 IPart= 30 NShTot=         100 NBatch=          20 AvBLen=         5.0
 IPart= 18 NShTot=         135 NBatch=          27 AvBLen=         5.0
 IPart= 20 NShTot=         135 NBatch=          27 AvBLen=         5.0
 IPart= 10 NShTot=         180 NBatch=          36 AvBLen=         5.0
 IPart=  4 NShTot=         200 NBatch=          40 AvBLen=         5.0
 IPart=  8 NShTot=         195 NBatch=          39 AvBLen=         5.0
 IPart=  0 NShTot=         280 NBatch=          56 AvBLen=         5.0
 IPart= 29 NShTot=         100 NBatch=          20 AvBLen=         5.0
 IPart= 27 NShTot=         105 NBatch=          21 AvBLen=         5.0
 IPart=  6 NShTot=         195 NBatch=          39 AvBLen=         5.0
 IPart=  3 NShTot=         210 NBatch=          42 AvBLen=         5.0
 IPart= 25 NShTot=         110 NBatch=          22 AvBLen=         5.0
 IPart= 14 NShTot=         145 NBatch=          29 AvBLen=         5.0
 IPart= 16 NShTot=         140 NBatch=          28 AvBLen=         5.0
 PrSmSu:  NxtVal=             33.
 l701 out
 I=    0 X=   4.100310982702D-02 Y=   1.379147718840D-01 Z=   2.506636057622D-02
 I=    1 X=  -3.088806121296D-01 Y=  -1.039765349943D+00 Z=  -1.888206706946D-01
 I=    2 X=  -5.306868153532D-03 Y=  -1.749588875393D-02 Z=   2.291362674182D+00
 I=    3 X=   2.037067039984D+00 Y=  -1.746961908625D-02 Z=  -1.048989801880D+00
 I=    4 X=  -1.715909710794D+00 Y=   1.098185210750D+00 Z=  -1.049289376512D+00
 I=    5 X=  -6.969848906285D-03 Y=  -2.345435296672D-02 Z=  -4.262825095010D-03
 ICntrl=      2127.
 Calling FoFJK, ICntrl=      2127 FMM=F ISym2X=0 I1Cent= 0 IOpClX= 1 NMat=1 NMatS=1 NMatT=0.
 FoFJK:  IHMeth= 1 ICntrl=    2127 DoSepK=T KAlg= 0 I1Cent=   0 FoldK=F
 IRaf=         1 NMat=   1 IRICut=       1 DoRegI=T DoRafI=F ISym2E= 0.
 FoFCou: FMM=F IPFlag=           0 FMFlag=      100000 FMFlg1=         800
         NFxFlg=           0 DoJE=F BraDBF=F KetDBF=F FulRan=T
         wScrn=  0.000000 ICntrl=    2527 IOpCl=  0 I1Cent=           0 NGrid=           0
         NMat0=    1 NMatS0=      1 NMatT0=    0 NMatD0=    1 NMtDS0=    0 NMtDT0=    0
 Symmetry not used in FoFCou.
 FoFCou:  KetSym=F NOpSet=  1 NOpAb=1 NOp=  1.
 FoFCou:  CnvScl= 1.00D+00 Thresh= 1.00D-10 IAcrcy=      10.
 PrismS was handed   419307182 working-precision words and  1055 shell-pairs
 FoFCou: LinMIO=F DoNuc=F BraDBF=F KetDBF=F HaveP=T PDBF=F HaveZ=T HaveW=F
         NIJTC =      10 NIJTAt=       0 NIJTCD=       0 NIJTT =      10
         IJTBeg=       1 IJTEnd=      10 KLTBeg=       1 KLTEnd=      10
         IPTBeg=       1 IPTEnd=      10 IPTBCv=       1 IPTECv=      10
         IZTBeg=       1 IZTEnd=      10 IZTBCv=       1 IZTECv=      10
         IWTBeg=      11 IWTEnd=      10 IWTBCv=      11 IWTECv=      10
         INTBeg=       1 INTEnd=       0 IFTBCv=       1 IFTECv=      10
 NCel replicated for PrismC:     1
 CoulSu:  IncDef=  1024 NBBP=         557040 NTPThr=   100 NPartT=   32 Incr=         174 LDynOK=F.
 CoulSu:  NPrtUS=  32 ThrOK=T IAlg=1 NPAlg=1 LenDen=           0 LWGrdD=           0 DoCopy=F.
 Enter PrismC: JobTyp=21 DoJE=F Cont=F.
 Enter PrismC: JobTyp=21 DoJE=F Cont=F.
 Enter PrismC: JobTyp=21 DoJE=F Cont=F.
 Enter PrismC: JobTyp=21 DoJE=F Cont=F.
 Enter PrismC: JobTyp=21 DoJE=F Cont=F.
 Enter PrismC: JobTyp=21 DoJE=F Cont=F.
 Enter PrismC: JobTyp=21 DoJE=F Cont=F.
 Enter PrismC: JobTyp=21 DoJE=F Cont=F.
 Enter PrismC: JobTyp=21 DoJE=F Cont=F.
 Enter PrismC: JobTyp=21 DoJE=F Cont=F.
 Enter PrismC: JobTyp=21 DoJE=F Cont=F.
 Enter PrismC: JobTyp=21 DoJE=F Cont=F.
 Enter PrismC: JobTyp=21 DoJE=F Cont=F.
 PrismC:  IPart=     0 DynPar=T LinDyn=F Incr=         174 UseFst=F UseS4=T IGathr=2.
 PrismC was handed    13086432 working-precision words and  1055 shell-pairs
 Enter PrismC: JobTyp=21 DoJE=F Cont=F.
 Enter PrismC: JobTyp=21 DoJE=F Cont=F.
 Enter PrismC: JobTyp=21 DoJE=F Cont=F.
 Enter PrismC: JobTyp=21 DoJE=F Cont=F.
 Enter PrismC: JobTyp=21 DoJE=F Cont=F.
 Enter PrismC: JobTyp=21 DoJE=F Cont=F.
 Enter PrismC: JobTyp=21 DoJE=F Cont=F.
 Enter PrismC: JobTyp=21 DoJE=F Cont=F.
 PrismC was handed    13086432 working-precision words and  1055 shell-pairs
 Enter PrismC: JobTyp=21 DoJE=F Cont=F.
 PrismC was handed    13086432 working-precision words and  1055 shell-pairs
 Enter PrismC: JobTyp=21 DoJE=F Cont=F.
 PrismC was handed    13086432 working-precision words and  1055 shell-pairs
 Enter PrismC: JobTyp=21 DoJE=F Cont=F.
 PrismC was handed    13086432 working-precision words and  1055 shell-pairs
 Enter PrismC: JobTyp=21 DoJE=F Cont=F.
 PrismC was handed    13086432 working-precision words and  1055 shell-pairs
 Enter PrismC: JobTyp=21 DoJE=F Cont=F.
 PrismC was handed    13086432 working-precision words and  1055 shell-pairs
 Enter PrismC: JobTyp=21 DoJE=F Cont=F.
 PrismC was handed    13086432 working-precision words and  1055 shell-pairs
 Enter PrismC: JobTyp=21 DoJE=F Cont=F.
 PrismC was handed    13086432 working-precision words and  1055 shell-pairs
 Enter PrismC: JobTyp=21 DoJE=F Cont=F.
 PrismC was handed    13086432 working-precision words and  1055 shell-pairs
 Enter PrismC: JobTyp=21 DoJE=F Cont=F.
 PrismC was handed    13086432 working-precision words and  1055 shell-pairs
 Enter PrismC: JobTyp=21 DoJE=F Cont=F.
 PrismC was handed    13086432 working-precision words and  1055 shell-pairs
 PrismC was handed    13086432 working-precision words and  1055 shell-pairs
 PrismC was handed    13086432 working-precision words and  1055 shell-pairs
 PrismC was handed    13086432 working-precision words and  1055 shell-pairs
 PrismC was handed    13086432 working-precision words and  1055 shell-pairs
 PrismC was handed    13086432 working-precision words and  1055 shell-pairs
 PrismC was handed    13086432 working-precision words and  1055 shell-pairs
 PrismC was handed    13086432 working-precision words and  1055 shell-pairs
 PrismC was handed    13086432 working-precision words and  1055 shell-pairs
 PrismC was handed    13086432 working-precision words and  1055 shell-pairs
 PrismC was handed    13086432 working-precision words and  1055 shell-pairs
 PrismC was handed    13086432 working-precision words and  1055 shell-pairs
 Enter PrismC: JobTyp=21 DoJE=F Cont=F.
 PrismC was handed    13086432 working-precision words and  1055 shell-pairs
 PrismC was handed    13086432 working-precision words and  1055 shell-pairs
 PrismC was handed    13086432 working-precision words and  1055 shell-pairs
 PrismC was handed    13086432 working-precision words and  1055 shell-pairs
 PrismC was handed    13086432 working-precision words and  1055 shell-pairs
 PrismC was handed    13086432 working-precision words and  1055 shell-pairs
 PrismC was handed    13086432 working-precision words and  1055 shell-pairs
 PrismC was handed    13086432 working-precision words and  1055 shell-pairs
 PrismC was handed    13086432 working-precision words and  1055 shell-pairs
 IPart= 12 NShTot=       16265 NShNF=       16265 NShFF=           0 NBatch=         183 AvBLen=        88.9
 IPart= 29 NShTot=       16240 NShNF=       16240 NShFF=           0 NBatch=         173 AvBLen=        93.9
 IPart=  8 NShTot=       13932 NShNF=       13932 NShFF=           0 NBatch=         156 AvBLen=        89.3
 IPart= 20 NShTot=       15088 NShNF=       15088 NShFF=           0 NBatch=         175 AvBLen=        86.2
 IPart= 19 NShTot=       11788 NShNF=       11788 NShFF=           0 NBatch=         164 AvBLen=        71.9
 IPart= 30 NShTot=       15353 NShNF=       15353 NShFF=           0 NBatch=         168 AvBLen=        91.4
 IPart= 16 NShTot=       12554 NShNF=       12554 NShFF=           0 NBatch=         173 AvBLen=        72.6
 IPart= 27 NShTot=       13130 NShNF=       13130 NShFF=           0 NBatch=         154 AvBLen=        85.3
 IPart=  2 NShTot=       11917 NShNF=       11917 NShFF=           0 NBatch=         130 AvBLen=        91.7
 IPart= 21 NShTot=       15584 NShNF=       15584 NShFF=           0 NBatch=         182 AvBLen=        85.6
 IPart= 13 NShTot=       17128 NShNF=       17128 NShFF=           0 NBatch=         164 AvBLen=       104.4
 IPart= 24 NShTot=       16699 NShNF=       16699 NShFF=           0 NBatch=         176 AvBLen=        94.9
 IPart= 28 NShTot=       13389 NShNF=       13389 NShFF=           0 NBatch=         164 AvBLen=        81.6
 IPart=  7 NShTot=       15167 NShNF=       15167 NShFF=           0 NBatch=         186 AvBLen=        81.5
 IPart= 25 NShTot=       17398 NShNF=       17398 NShFF=           0 NBatch=         178 AvBLen=        97.7
 IPart= 15 NShTot=       13761 NShNF=       13761 NShFF=           0 NBatch=         173 AvBLen=        79.5
 IPart=  0 NShTot=       11733 NShNF=       11733 NShFF=           0 NBatch=         161 AvBLen=        72.9
 IPart= 26 NShTot=       16622 NShNF=       16622 NShFF=           0 NBatch=         173 AvBLen=        96.1
 IPart= 23 NShTot=       14770 NShNF=       14770 NShFF=           0 NBatch=         183 AvBLen=        80.7
 IPart= 11 NShTot=       14652 NShNF=       14652 NShFF=           0 NBatch=         175 AvBLen=        83.7
 IPart= 31 NShTot=       15460 NShNF=       15460 NShFF=           0 NBatch=         180 AvBLen=        85.9
 IPart= 14 NShTot=       13184 NShNF=       13184 NShFF=           0 NBatch=         174 AvBLen=        75.8
 IPart=  3 NShTot=       14410 NShNF=       14410 NShFF=           0 NBatch=         167 AvBLen=        86.3
 IPart= 10 NShTot=       15052 NShNF=       15052 NShFF=           0 NBatch=         162 AvBLen=        92.9
 IPart= 17 NShTot=       14850 NShNF=       14850 NShFF=           0 NBatch=         123 AvBLen=       120.7
 IPart=  4 NShTot=       12932 NShNF=       12932 NShFF=           0 NBatch=         163 AvBLen=        79.3
 IPart= 22 NShTot=       13897 NShNF=       13897 NShFF=           0 NBatch=         173 AvBLen=        80.3
 IPart=  6 NShTot=       14079 NShNF=       14079 NShFF=           0 NBatch=         163 AvBLen=        86.4
 IPart=  9 NShTot=       13842 NShNF=       13842 NShFF=           0 NBatch=         165 AvBLen=        83.9
 IPart=  5 NShTot=       15377 NShNF=       15377 NShFF=           0 NBatch=         179 AvBLen=        85.9
 IPart=  1 NShTot=       16805 NShNF=       16805 NShFF=           0 NBatch=         179 AvBLen=        93.9
 IPart= 18 NShTot=       17275 NShNF=       17275 NShFF=           0 NBatch=         185 AvBLen=        93.4
 CoulSu:  NxtVal=         617179.
 FoFCou: FMM=F IPFlag=           0 FMFlag=      100000 FMFlg1=         800
         NFxFlg=           0 DoJE=F BraDBF=F KetDBF=F FulRan=T
         wScrn=  0.000000 ICntrl=    2127 IOpCl=  1 I1Cent=           0 NGrid=           0
         NMat0=    1 NMatS0=      0 NMatT0=    1 NMatD0=    1 NMtDS0=    0 NMtDT0=    0
         CW=    0.222036    0.777964
         WU=    0.000000   12.500000
 Symmetry not used in FoFCou.
 FoFCou:  KetSym=F NOpSet=  1 NOpAb=1 NOp=  1.
 FoFCou:  CnvScl= 1.00D+00 Thresh= 1.00D-10 IAcrcy=      10.
 PrismS was handed   419305942 working-precision words and  1055 shell-pairs
 FoFCou: LinMIO=F DoNuc=F BraDBF=F KetDBF=F HaveP=T PDBF=F HaveZ=T HaveW=F
         NIJTC =      10 NIJTAt=       0 NIJTCD=       0 NIJTT =      10
         IJTBeg=       1 IJTEnd=      10 KLTBeg=       1 KLTEnd=      10
         IPTBeg=       1 IPTEnd=      10 IPTBCv=       1 IPTECv=      10
         IZTBeg=       1 IZTEnd=      10 IZTBCv=       1 IZTECv=      10
         IWTBeg=      11 IWTEnd=      10 IWTBCv=      11 IWTECv=      10
         INTBeg=       1 INTEnd=       0 IFTBCv=       1 IFTECv=      10
 NCel replicated for PrismC:     1
 CoulSu:  IncDef=  1024 NBBP=         557040 NTPThr=   100 NPartT=   32 Incr=         174 LDynOK=F.
 CoulSu:  NPrtUS=  32 ThrOK=T IAlg=1 NPAlg=1 LenDen=           0 LWGrdD=           0 DoCopy=F.
 Enter PrismC: JobTyp=21 DoJE=F Cont=F.
 Linear combination for Coulomb/exchange, wScrn=  0.000000
 CW=    0.222036    0.777964
 Enter PrismC: JobTyp=21 DoJE=F Cont=F.
 Enter PrismC: JobTyp=21 DoJE=F Cont=F.
 Linear combination for Coulomb/exchange, wScrn=  0.000000
 CW=    0.222036    0.777964
 WU=    0.000000   12.500000
 Enter PrismC: JobTyp=21 DoJE=F Cont=F.
 Linear combination for Coulomb/exchange, wScrn=  0.000000
 CW=    0.222036    0.777964
 WU=    0.000000   12.500000
 PrismC was handed    13086393 working-precision words and  1055 shell-pairs
 Enter PrismC: JobTyp=21 DoJE=F Cont=F.
 Linear combination for Coulomb/exchange, wScrn=  0.000000
 CW=    0.222036    0.777964
 WU=    0.000000   12.500000
 Enter PrismC: JobTyp=21 DoJE=F Cont=F.
 Linear combination for Coulomb/exchange, wScrn=  0.000000
 CW=    0.222036    0.777964
 WU=    0.000000   12.500000
 Enter PrismC: JobTyp=21 DoJE=F Cont=F.
 Linear combination for Coulomb/exchange, wScrn=  0.000000
 CW=    0.222036    0.777964
 WU=    0.000000   12.500000
 Enter PrismC: JobTyp=21 DoJE=F Cont=F.
 Linear combination for Coulomb/exchange, wScrn=  0.000000
 CW=    0.222036    0.777964
 WU=    0.000000   12.500000
 Enter PrismC: JobTyp=21 DoJE=F Cont=F.
 Linear combination for Coulomb/exchange, wScrn=  0.000000
 CW=    0.222036    0.777964
 WU=    0.000000   12.500000
 Enter PrismC: JobTyp=21 DoJE=F Cont=F.
 Linear combination for Coulomb/exchange, wScrn=  0.000000
 CW=    0.222036    0.777964
 WU=    0.000000   12.500000
 Enter PrismC: JobTyp=21 DoJE=F Cont=F.
 Linear combination for Coulomb/exchange, wScrn=  0.000000
 CW=    0.222036    0.777964
 WU=    0.000000   12.500000
 Enter PrismC: JobTyp=21 DoJE=F Cont=F.
 Linear combination for Coulomb/exchange, wScrn=  0.000000
 CW=    0.222036    0.777964
 WU=    0.000000   12.500000
 Enter PrismC: JobTyp=21 DoJE=F Cont=F.
 Linear combination for Coulomb/exchange, wScrn=  0.000000
 CW=    0.222036    0.777964
 WU=    0.000000   12.500000
 WU=    0.000000   12.500000
 Enter PrismC: JobTyp=21 DoJE=F Cont=F.
 Linear combination for Coulomb/exchange, wScrn=  0.000000
 CW=    0.222036    0.777964
 WU=    0.000000   12.500000
 Enter PrismC: JobTyp=21 DoJE=F Cont=F.
 Linear combination for Coulomb/exchange, wScrn=  0.000000
 CW=    0.222036    0.777964
 WU=    0.000000   12.500000
 Enter PrismC: JobTyp=21 DoJE=F Cont=F.
 Linear combination for Coulomb/exchange, wScrn=  0.000000
 CW=    0.222036    0.777964
 WU=    0.000000   12.500000
 Enter PrismC: JobTyp=21 DoJE=F Cont=F.
 Linear combination for Coulomb/exchange, wScrn=  0.000000
 CW=    0.222036    0.777964
 WU=    0.000000   12.500000
 Enter PrismC: JobTyp=21 DoJE=F Cont=F.
 Linear combination for Coulomb/exchange, wScrn=  0.000000
 CW=    0.222036    0.777964
 WU=    0.000000   12.500000
 Linear combination for Coulomb/exchange, wScrn=  0.000000
 CW=    0.222036    0.777964
 WU=    0.000000   12.500000
 Enter PrismC: JobTyp=21 DoJE=F Cont=F.
 Linear combination for Coulomb/exchange, wScrn=  0.000000
 CW=    0.222036    0.777964
 WU=    0.000000   12.500000
 PrismC was handed    13086393 working-precision words and  1055 shell-pairs
 Enter PrismC: JobTyp=21 DoJE=F Cont=F.
 Linear combination for Coulomb/exchange, wScrn=  0.000000
 CW=    0.222036    0.777964
 WU=    0.000000   12.500000
 Enter PrismC: JobTyp=21 DoJE=F Cont=F.
 Linear combination for Coulomb/exchange, wScrn=  0.000000
 CW=    0.222036    0.777964
 WU=    0.000000   12.500000
 PrismC was handed    13086393 working-precision words and  1055 shell-pairs
 Enter PrismC: JobTyp=21 DoJE=F Cont=F.
 Linear combination for Coulomb/exchange, wScrn=  0.000000
 CW=    0.222036    0.777964
 WU=    0.000000   12.500000
 Enter PrismC: JobTyp=21 DoJE=F Cont=F.
 Linear combination for Coulomb/exchange, wScrn=  0.000000
 CW=    0.222036    0.777964
 WU=    0.000000   12.500000
 PrismC was handed    13086393 working-precision words and  1055 shell-pairs
 Enter PrismC: JobTyp=21 DoJE=F Cont=F.
 Linear combination for Coulomb/exchange, wScrn=  0.000000
 CW=    0.222036    0.777964
 WU=    0.000000   12.500000
 PrismC was handed    13086393 working-precision words and  1055 shell-pairs
 PrismC was handed    13086393 working-precision words and  1055 shell-pairs
 PrismC was handed    13086393 working-precision words and  1055 shell-pairs
 Enter PrismC: JobTyp=21 DoJE=F Cont=F.
 Linear combination for Coulomb/exchange, wScrn=  0.000000
 CW=    0.222036    0.777964
 WU=    0.000000   12.500000
 Enter PrismC: JobTyp=21 DoJE=F Cont=F.
 Linear combination for Coulomb/exchange, wScrn=  0.000000
 CW=    0.222036    0.777964
 WU=    0.000000   12.500000
 PrismC was handed    13086393 working-precision words and  1055 shell-pairs
 PrismC was handed    13086393 working-precision words and  1055 shell-pairs
 Enter PrismC: JobTyp=21 DoJE=F Cont=F.
 Linear combination for Coulomb/exchange, wScrn=  0.000000
 CW=    0.222036    0.777964
 WU=    0.000000   12.500000
 PrismC was handed    13086393 working-precision words and  1055 shell-pairs
 PrismC was handed    13086393 working-precision words and  1055 shell-pairs
 PrismC was handed    13086393 working-precision words and  1055 shell-pairs
 Enter PrismC: JobTyp=21 DoJE=F Cont=F.
 Linear combination for Coulomb/exchange, wScrn=  0.000000
 CW=    0.222036    0.777964
 WU=    0.000000   12.500000
 PrismC was handed    13086393 working-precision words and  1055 shell-pairs
 PrismC was handed    13086393 working-precision words and  1055 shell-pairs
 Enter PrismC: JobTyp=21 DoJE=F Cont=F.
 Linear combination for Coulomb/exchange, wScrn=  0.000000
 CW=    0.222036    0.777964
 WU=    0.000000   12.500000
 PrismC was handed    13086393 working-precision words and  1055 shell-pairs
 PrismC was handed    13086393 working-precision words and  1055 shell-pairs
 PrismC was handed    13086393 working-precision words and  1055 shell-pairs
 PrismC was handed    13086393 working-precision words and  1055 shell-pairs
 PrismC:  IPart=     0 DynPar=T LinDyn=F Incr=         174 UseFst=F UseS4=T IGathr=2.
 PrismC was handed    13086393 working-precision words and  1055 shell-pairs
 PrismC was handed    13086393 working-precision words and  1055 shell-pairs
 PrismC was handed    13086393 working-precision words and  1055 shell-pairs
 Enter PrismC: JobTyp=21 DoJE=F Cont=F.
 Linear combination for Coulomb/exchange, wScrn=  0.000000
 CW=    0.222036    0.777964
 WU=    0.000000   12.500000
 PrismC was handed    13086393 working-precision words and  1055 shell-pairs
 PrismC was handed    13086393 working-precision words and  1055 shell-pairs
 PrismC was handed    13086393 working-precision words and  1055 shell-pairs
 PrismC was handed    13086393 working-precision words and  1055 shell-pairs
 Enter PrismC: JobTyp=21 DoJE=F Cont=F.
 Linear combination for Coulomb/exchange, wScrn=  0.000000
 CW=    0.222036    0.777964
 WU=    0.000000   12.500000
 PrismC was handed    13086393 working-precision words and  1055 shell-pairs
 PrismC was handed    13086393 working-precision words and  1055 shell-pairs
 Enter PrismC: JobTyp=21 DoJE=F Cont=F.
 PrismC was handed    13086393 working-precision words and  1055 shell-pairs
 PrismC was handed    13086393 working-precision words and  1055 shell-pairs
 PrismC was handed    13086393 working-precision words and  1055 shell-pairs
 PrismC was handed    13086393 working-precision words and  1055 shell-pairs
 Linear combination for Coulomb/exchange, wScrn=  0.000000
 CW=    0.222036    0.777964
 WU=    0.000000   12.500000
 PrismC was handed    13086393 working-precision words and  1055 shell-pairs
 IPart= 18 NShTot=       16543 NShNF=       16543 NShFF=           0 NBatch=         196 AvBLen=        84.4
 IPart= 24 NShTot=       13960 NShNF=       13960 NShFF=           0 NBatch=         230 AvBLen=        60.7
 IPart= 28 NShTot=       15206 NShNF=       15206 NShFF=           0 NBatch=         149 AvBLen=       102.1
 IPart= 22 NShTot=       15820 NShNF=       15820 NShFF=           0 NBatch=         221 AvBLen=        71.6
 IPart=  6 NShTot=       15374 NShNF=       15374 NShFF=           0 NBatch=         155 AvBLen=        99.2
 IPart=  1 NShTot=       15212 NShNF=       15212 NShFF=           0 NBatch=         214 AvBLen=        71.1
 IPart= 19 NShTot=       10360 NShNF=       10360 NShFF=           0 NBatch=         117 AvBLen=        88.5
 IPart= 25 NShTot=       14893 NShNF=       14893 NShFF=           0 NBatch=         137 AvBLen=       108.7
 IPart=  9 NShTot=       14816 NShNF=       14816 NShFF=           0 NBatch=         220 AvBLen=        67.3
 IPart= 30 NShTot=       12689 NShNF=       12689 NShFF=           0 NBatch=         202 AvBLen=        62.8
 IPart= 27 NShTot=       14579 NShNF=       14579 NShFF=           0 NBatch=         221 AvBLen=        66.0
 IPart= 21 NShTot=       12009 NShNF=       12009 NShFF=           0 NBatch=         132 AvBLen=        91.0
 IPart= 31 NShTot=       14431 NShNF=       14431 NShFF=           0 NBatch=         194 AvBLen=        74.4
 IPart=  2 NShTot=       17673 NShNF=       17673 NShFF=           0 NBatch=         212 AvBLen=        83.4
 IPart=  3 NShTot=       14592 NShNF=       14592 NShFF=           0 NBatch=         219 AvBLen=        66.6
 IPart= 20 NShTot=       16732 NShNF=       16732 NShFF=           0 NBatch=         186 AvBLen=        90.0
 IPart=  8 NShTot=       17529 NShNF=       17529 NShFF=           0 NBatch=         196 AvBLen=        89.4
 IPart= 15 NShTot=       14462 NShNF=       14462 NShFF=           0 NBatch=         223 AvBLen=        64.9
 IPart=  0 NShTot=       14610 NShNF=       14610 NShFF=           0 NBatch=         213 AvBLen=        68.6
 IPart=  7 NShTot=       16192 NShNF=       16192 NShFF=           0 NBatch=         219 AvBLen=        73.9
 IPart=  4 NShTot=       13497 NShNF=       13497 NShFF=           0 NBatch=         140 AvBLen=        96.4
 IPart= 11 NShTot=       12948 NShNF=       12948 NShFF=           0 NBatch=         219 AvBLen=        59.1
 IPart= 10 NShTot=       13979 NShNF=       13979 NShFF=           0 NBatch=         169 AvBLen=        82.7
 IPart= 26 NShTot=       13185 NShNF=       13185 NShFF=           0 NBatch=         197 AvBLen=        66.9
 IPart= 29 NShTot=       15071 NShNF=       15071 NShFF=           0 NBatch=         186 AvBLen=        81.0
 IPart= 12 NShTot=       14604 NShNF=       14604 NShFF=           0 NBatch=         220 AvBLen=        66.4
 IPart= 13 NShTot=       13315 NShNF=       13315 NShFF=           0 NBatch=         174 AvBLen=        76.5
 IPart= 14 NShTot=       14768 NShNF=       14768 NShFF=           0 NBatch=         197 AvBLen=        75.0
 IPart=  5 NShTot=       13110 NShNF=       13110 NShFF=           0 NBatch=         201 AvBLen=        65.2
 IPart= 23 NShTot=       14308 NShNF=       14308 NShFF=           0 NBatch=         214 AvBLen=        66.9
 IPart= 16 NShTot=       16701 NShNF=       16701 NShFF=           0 NBatch=         198 AvBLen=        84.3
 IPart= 17 NShTot=       17036 NShNF=       17036 NShFF=           0 NBatch=         226 AvBLen=        75.4
 CoulSu:  NxtVal=         617179.
 ReadGW:  IGet=0 IStart=           1 Next=           1 LGW=           0.
 Remaining memory in FofDFT      399.95 Mw
 CkSvGd:  ISavGI=        -1 IRadAn=       5 IRASav=       5 ISavGd=        -1.
 CalDSu:  NPrtUS=  32 ThrOK=T IAlg=1 NPAlg=2 DoDPD=T LenP=       12090 LenD1P=             0.
 IPart=  0 IRanGd=          0 ScrnBf=T ScrnGd=T RCrit=4.00D+00 DoMicB=T.
 IPart= 31         4235 of         4426 points in       4 batches and       10 microbatches, Max-NSigAt=       5 Max-NSgAt2=       5
 IPart= 30         2805 of         2992 points in       3 batches and        7 microbatches, Max-NSigAt=       5 Max-NSgAt2=       5
 IPart= 18         3638 of         3764 points in       3 batches and       10 microbatches, Max-NSigAt=       5 Max-NSgAt2=       5
 IPart= 14         2533 of         2538 points in       2 batches and        7 microbatches, Max-NSigAt=       5 Max-NSgAt2=       5
 IPart= 15         3667 of         3736 points in       3 batches and       11 microbatches, Max-NSigAt=       5 Max-NSgAt2=       5
 IPart= 13         4290 of         4748 points in       5 batches and       18 microbatches, Max-NSigAt=       5 Max-NSgAt2=       5
 IPart=  1         4384 of         4740 points in       5 batches and       32 microbatches, Max-NSigAt=       5 Max-NSgAt2=       5
 IPart=  6         3354 of         3568 points in       4 batches and       24 microbatches, Max-NSigAt=       5 Max-NSgAt2=       5
 IPart= 28         2855 of         2988 points in       3 batches and        7 microbatches, Max-NSigAt=       5 Max-NSgAt2=       5
 IPart=  4         2388 of         2388 points in       2 batches and        6 microbatches, Max-NSigAt=       5 Max-NSgAt2=       5
 IPart=  2         2831 of         2964 points in       3 batches and        7 microbatches, Max-NSigAt=       5 Max-NSgAt2=       5
 IPart= 11         3336 of         3336 points in       3 batches and       15 microbatches, Max-NSigAt=       5 Max-NSgAt2=       5
 IPart= 21         2931 of         3020 points in       3 batches and        8 microbatches, Max-NSigAt=       5 Max-NSgAt2=       5
 IPart= 27         3188 of         3568 points in       4 batches and       47 microbatches, Max-NSigAt=       5 Max-NSgAt2=       5
 IPart= 22         3860 of         4172 points in       5 batches and       52 microbatches, Max-NSigAt=       5 Max-NSgAt2=       5
 IPart=  7         3187 of         3624 points in       5 batches and       54 microbatches, Max-NSigAt=       5 Max-NSgAt2=       5
 IPart=  5         3806 of         4172 points in       5 batches and       46 microbatches, Max-NSigAt=       5 Max-NSgAt2=       5
 IPart= 19         2556 of         2556 points in       2 batches and        6 microbatches, Max-NSigAt=       5 Max-NSgAt2=       5
 IPart=  3         4438 of         4748 points in       5 batches and       14 microbatches, Max-NSigAt=       5 Max-NSgAt2=       5
 IPart=  8         3212 of         3322 points in       3 batches and       33 microbatches, Max-NSigAt=       5 Max-NSgAt2=       5
 IPart= 29         4356 of         4776 points in       6 batches and       32 microbatches, Max-NSigAt=       5 Max-NSgAt2=       5
 IPart=  0         2642 of         2642 points in       2 batches and        6 microbatches, Max-NSigAt=       5 Max-NSgAt2=       5
 IPart= 26         3645 of         3940 points in       4 batches and       26 microbatches, Max-NSigAt=       5 Max-NSgAt2=       5
 IPart= 10         2780 of         2948 points in       3 batches and       31 microbatches, Max-NSigAt=       5 Max-NSgAt2=       5
 IPart= 12         3414 of         3568 points in       4 batches and       29 microbatches, Max-NSigAt=       5 Max-NSgAt2=       5
 IPart= 25         3970 of         4196 points in       5 batches and       42 microbatches, Max-NSigAt=       5 Max-NSgAt2=       5
 IPart=  9         3895 of         4172 points in       5 batches and       57 microbatches, Max-NSigAt=       5 Max-NSgAt2=       5
 IPart= 16         2755 of         2964 points in       3 batches and       27 microbatches, Max-NSigAt=       5 Max-NSgAt2=       5
 IPart= 20         3014 of         3014 points in       2 batches and        7 microbatches, Max-NSigAt=       5 Max-NSgAt2=       5
 IPart= 17         4251 of         4468 points in       5 batches and       60 microbatches, Max-NSigAt=       5 Max-NSgAt2=       5
 IPart= 23         4455 of         4748 points in       5 batches and       32 microbatches, Max-NSigAt=       5 Max-NSgAt2=       5
 IPart= 24         4154 of         4474 points in       5 batches and       27 microbatches, Max-NSigAt=       5 Max-NSgAt2=       5
 Forces at end of L703
 I=    0 X=   4.100310982702D-02 Y=   1.379147718840D-01 Z=   2.506636057622D-02
 I=    1 X=  -3.484722290551D-03 Y=  -1.171027917765D-02 Z=  -2.132223847552D-03
 I=    2 X=   1.272164433087D-03 Y=   4.255711988196D-03 Z=  -1.422210351121D-03
 I=    3 X=  -6.911849910818D-04 Y=   4.263355395136D-03 Z=   1.780932025287D-03
 I=    4 X=   2.903799050089D-03 Y=   3.191385736099D-03 Z=   1.773529771871D-03
 I=    5 X=  -5.620154030703D-08 Y=  -1.739417754033D-07 Z=  -2.759848144896D-08
 FrcOut:
 IF    =    39 IFX   =    54 IFXYZ =    69
 IFFX  =    84 IFFFX =   204 IFLen =    15
 IFFLen=   120 IFFFLn=     0 IEDerv=   204
 LEDerv=   773 IFroze=  1166 ICStrt= 39594
 FCEst1:  Generated internal coordinate force constants:
                1             2             3             4             5 
      1  0.644288D+00
      2 -0.121353D+00  0.272140D+00
      3 -0.220366D-01 -0.742020D-01  0.666892D+00
      4 -0.998443D-01  0.112428D-01 -0.507459D-02  0.691212D-01
      5  0.112429D-01 -0.653873D-01 -0.170616D-01 -0.585172D-02  0.511909D-01
      6  0.000000D+00  0.000000D+00 -0.361033D+00  0.000000D+00  0.000000D+00
      7 -0.308835D+00  0.512229D-02  0.107012D+00  0.177409D-01  0.573425D-03
      8 -0.100641D-01 -0.653830D-01  0.177797D-01  0.125815D-02  0.435264D-02
      9  0.101940D+00  0.100037D-01 -0.152042D+00  0.346474D-01  0.111988D-02
     10 -0.233904D+00  0.104785D+00 -0.799375D-01  0.129108D-01 -0.615519D-02
     11  0.119972D+00 -0.140287D+00  0.733597D-01 -0.683982D-02  0.918752D-02
     12 -0.799398D-01  0.640743D-01 -0.152075D+00 -0.284073D-01  0.198639D-01
     13 -0.170454D-02  0.203180D-03  0.366131D-04  0.714744D-04  0.190602D-03
     14  0.202731D-03 -0.108291D-02  0.124071D-03  0.190601D-03  0.656226D-03
     15  0.365046D-04  0.123981D-03 -0.174251D-02 -0.116556D-02 -0.392223D-02
                6             7             8             9            10 
      6  0.361033D+00
      7  0.000000D+00  0.300396D+00
      8  0.000000D+00 -0.266610D-02  0.511886D-01
      9  0.000000D+00 -0.118421D+00 -0.520680D-02  0.129760D+00
     10  0.000000D+00 -0.884368D-02  0.148764D-01 -0.172714D-01  0.228445D+00
     11  0.000000D+00 -0.311646D-02  0.918580D-02 -0.608636D-02 -0.112940D+00
     12  0.000000D+00  0.111381D-01 -0.145302D-01  0.217523D-01  0.963668D-01
     13  0.000000D+00 -0.458074D-03 -0.340433D-02 -0.894605D-03  0.139197D-02
     14  0.000000D+00  0.868440D-04  0.655922D-03  0.169604D-03 -0.566706D-03
     15  0.000000D+00  0.271139D-03  0.195723D-02  0.529527D-03  0.842152D-03
               11            12            13            14            15 
     11  0.123107D+00
     12 -0.690615D-01  0.129793D+00
     13  0.292402D-02  0.842227D-03  0.699171D-03
     14 -0.119391D-02 -0.346586D-03  0.865304D-04  0.964670D-03
     15  0.178811D-02  0.529882D-03  0.157649D-04  0.529114D-04  0.683102D-03
 Quadrupole    = 3.09850002D-01-6.79825459D-01 3.69975457D-01
                -3.22662604D-01-5.85456481D-02-1.97346919D-01
 -------------------------------------------------------------------
 Center     Atomic                   Forces (Hartrees/Bohr)
 Number     Number              X              Y              Z
 -------------------------------------------------------------------
      1        6           0.003484722    0.011710279    0.002132224
      2        1          -0.001272164   -0.004255712    0.001422210
      3        1           0.000691185   -0.004263355   -0.001780932
      4        1          -0.002903799   -0.003191386   -0.001773530
      5        1           0.000000056    0.000000174    0.000000028
 -------------------------------------------------------------------
 Cartesian Forces:  Max     0.011710279 RMS     0.003822395
 From PutF, contents of force:
   1    0.1422210351D-02
   2    0.1426913304D-02
   3    0.1421642429D-02
   4    0.2590168918D-02
   5    0.2578499198D-02
   6   -0.7730663412D-02
   7   -0.8052192621D-07
   8    0.7892395612D-07
   9   -0.1847698029D-06
 -----------------------------------------------------------------------------------------------
                       Internal Coordinate Forces (Hartree/Bohr or radian)
  Cent   Atom   N1       Length/X         N2         Alpha/Y        N3         Beta/Z          J
 -----------------------------------------------------------------------------------------------
      1  C 
      2  H        1   0.001422(     1)
      3  H        1   0.001427(     2)      2   0.002590(     5)
      4  H        1   0.001422(     3)      2   0.002578(     6)      3  -0.007731(     8)     0
      5  H        1  -0.000000(     4)      2   0.000000(     7)      3  -0.000000(     9)     0
 -----------------------------------------------------------------------------------------------
 Internal  Forces:  Max     0.007730663 RMS     0.002966491
 Force constants in Cartesian coordinates: 
                1             2             3             4             5 
      1  0.644288D+00
      2 -0.121353D+00  0.272140D+00
      3 -0.220366D-01 -0.742020D-01  0.666892D+00
      4 -0.998443D-01  0.112428D-01 -0.507459D-02  0.691212D-01
      5  0.112429D-01 -0.653873D-01 -0.170616D-01 -0.585172D-02  0.511909D-01
      6  0.000000D+00  0.000000D+00 -0.361033D+00  0.000000D+00  0.000000D+00
      7 -0.308835D+00  0.512229D-02  0.107012D+00  0.177409D-01  0.573425D-03
      8 -0.100641D-01 -0.653830D-01  0.177797D-01  0.125815D-02  0.435264D-02
      9  0.101940D+00  0.100037D-01 -0.152042D+00  0.346474D-01  0.111988D-02
     10 -0.233904D+00  0.104785D+00 -0.799375D-01  0.129108D-01 -0.615519D-02
     11  0.119972D+00 -0.140287D+00  0.733597D-01 -0.683982D-02  0.918752D-02
     12 -0.799398D-01  0.640743D-01 -0.152075D+00 -0.284073D-01  0.198639D-01
     13 -0.170454D-02  0.203180D-03  0.366131D-04  0.714744D-04  0.190602D-03
     14  0.202731D-03 -0.108291D-02  0.124071D-03  0.190601D-03  0.656226D-03
     15  0.365046D-04  0.123981D-03 -0.174251D-02 -0.116556D-02 -0.392223D-02
                6             7             8             9            10 
      6  0.361033D+00
      7  0.000000D+00  0.300396D+00
      8  0.000000D+00 -0.266610D-02  0.511886D-01
      9  0.000000D+00 -0.118421D+00 -0.520680D-02  0.129760D+00
     10  0.000000D+00 -0.884368D-02  0.148764D-01 -0.172714D-01  0.228445D+00
     11  0.000000D+00 -0.311646D-02  0.918580D-02 -0.608636D-02 -0.112940D+00
     12  0.000000D+00  0.111381D-01 -0.145302D-01  0.217523D-01  0.963668D-01
     13  0.000000D+00 -0.458074D-03 -0.340433D-02 -0.894605D-03  0.139197D-02
     14  0.000000D+00  0.868440D-04  0.655922D-03  0.169604D-03 -0.566706D-03
     15  0.000000D+00  0.271139D-03  0.195723D-02  0.529527D-03  0.842152D-03
               11            12            13            14            15 
     11  0.123107D+00
     12 -0.690615D-01  0.129793D+00
     13  0.292402D-02  0.842227D-03  0.699171D-03
     14 -0.119391D-02 -0.346586D-03  0.865304D-04  0.964670D-03
     15  0.178811D-02  0.529882D-03  0.157649D-04  0.529114D-04  0.683102D-03
 FCInt: Cartesian first derivatives: 
                 1             2             3             4             5 
      1   0.000000D+00  0.000000D+00  0.000000D+00  0.000000D+00  0.000000D+00
      2   0.000000D+00  0.000000D+00  0.000000D+00  0.000000D+00  0.000000D+00
      3   0.000000D+00  0.000000D+00  0.000000D+00  0.000000D+00  0.000000D+00
 FCInt: Cartesian force constants: 
                1             2             3             4             5 
      1  0.644288D+00
      2 -0.121353D+00  0.272140D+00
      3 -0.220366D-01 -0.742020D-01  0.666892D+00
      4 -0.998443D-01  0.112428D-01 -0.507459D-02  0.691212D-01
      5  0.112429D-01 -0.653873D-01 -0.170616D-01 -0.585172D-02  0.511909D-01
      6  0.000000D+00  0.000000D+00 -0.361033D+00  0.000000D+00  0.000000D+00
      7 -0.308835D+00  0.512229D-02  0.107012D+00  0.177409D-01  0.573425D-03
      8 -0.100641D-01 -0.653830D-01  0.177797D-01  0.125815D-02  0.435264D-02
      9  0.101940D+00  0.100037D-01 -0.152042D+00  0.346474D-01  0.111988D-02
     10 -0.233904D+00  0.104785D+00 -0.799375D-01  0.129108D-01 -0.615519D-02
     11  0.119972D+00 -0.140287D+00  0.733597D-01 -0.683982D-02  0.918752D-02
     12 -0.799398D-01  0.640743D-01 -0.152075D+00 -0.284073D-01  0.198639D-01
     13 -0.170454D-02  0.203180D-03  0.366131D-04  0.714744D-04  0.190602D-03
     14  0.202731D-03 -0.108291D-02  0.124071D-03  0.190601D-03  0.656226D-03
     15  0.365046D-04  0.123981D-03 -0.174251D-02 -0.116556D-02 -0.392223D-02
                6             7             8             9            10 
      6  0.361033D+00
      7  0.000000D+00  0.300396D+00
      8  0.000000D+00 -0.266610D-02  0.511886D-01
      9  0.000000D+00 -0.118421D+00 -0.520680D-02  0.129760D+00
     10  0.000000D+00 -0.884368D-02  0.148764D-01 -0.172714D-01  0.228445D+00
     11  0.000000D+00 -0.311646D-02  0.918580D-02 -0.608636D-02 -0.112940D+00
     12  0.000000D+00  0.111381D-01 -0.145302D-01  0.217523D-01  0.963668D-01
     13  0.000000D+00 -0.458074D-03 -0.340433D-02 -0.894605D-03  0.139197D-02
     14  0.000000D+00  0.868440D-04  0.655922D-03  0.169604D-03 -0.566706D-03
     15  0.000000D+00  0.271139D-03  0.195723D-02  0.529527D-03  0.842152D-03
               11            12            13            14            15 
     11  0.123107D+00
     12 -0.690615D-01  0.129793D+00
     13  0.292402D-02  0.842227D-03  0.699171D-03
     14 -0.119391D-02 -0.346586D-03  0.865304D-04  0.964670D-03
     15  0.178811D-02  0.529882D-03  0.157649D-04  0.529114D-04  0.683102D-03
 Internal force constants: 
                1             2             3             4             5 
      1  0.361033D+00
      2  0.000000D+00  0.361033D+00
      3  0.000000D+00  0.000000D+00  0.361033D+00
      4  0.000000D+00  0.000000D+00  0.000000D+00  0.100000D-02
      5  0.000000D+00  0.000000D+00  0.000000D+00  0.000000D+00  0.287439D+00
      6  0.000000D+00  0.000000D+00  0.000000D+00  0.000000D+00  0.114178D+00
      7  0.000000D+00  0.000000D+00  0.000000D+00  0.000000D+00  0.232703D-01
      8  0.000000D+00  0.000000D+00  0.000000D+00  0.000000D+00  0.604289D-01
      9  0.000000D+00  0.000000D+00  0.000000D+00  0.000000D+00 -0.386355D-01
                6             7             8             9 
      6  0.287444D+00
      7  0.232875D-01  0.240505D+00
      8  0.216376D-01 -0.681592D-01  0.168617D+00
      9  0.386470D-01  0.142141D-04 -0.116560D+00  0.233412D+00
 Frcnst in PutFF: 
                1             2             3             4             5 
      1  0.361033D+00
      2  0.000000D+00  0.361033D+00
      3  0.000000D+00  0.000000D+00  0.361033D+00
      4  0.000000D+00  0.000000D+00  0.000000D+00  0.287439D+00
      5  0.000000D+00  0.000000D+00  0.000000D+00  0.114178D+00  0.287444D+00
      6  0.000000D+00  0.000000D+00  0.000000D+00  0.604289D-01  0.216376D-01
      7  0.000000D+00  0.000000D+00  0.000000D+00 -0.386355D-01  0.386470D-01
      8  0.000000D+00  0.000000D+00  0.000000D+00  0.232703D-01  0.232875D-01
      9  0.000000D+00  0.000000D+00  0.000000D+00  0.000000D+00  0.000000D+00
                6             7             8             9 
      6  0.168617D+00
      7 -0.116560D+00  0.233412D+00
      8 -0.681592D-01  0.142141D-04  0.240505D+00
      9  0.000000D+00  0.000000D+00  0.000000D+00  0.100000D-02
 Force constants in internal coordinates: 
                1             2             3             4             5 
      1  0.361033D+00
      2  0.000000D+00  0.361033D+00
      3  0.000000D+00  0.000000D+00  0.361033D+00
      4  0.000000D+00  0.000000D+00  0.000000D+00  0.100000D-02
      5  0.000000D+00  0.000000D+00  0.000000D+00  0.000000D+00  0.287439D+00
      6  0.000000D+00  0.000000D+00  0.000000D+00  0.000000D+00  0.114178D+00
      7  0.000000D+00  0.000000D+00  0.000000D+00  0.000000D+00  0.232703D-01
      8  0.000000D+00  0.000000D+00  0.000000D+00  0.000000D+00  0.604289D-01
      9  0.000000D+00  0.000000D+00  0.000000D+00  0.000000D+00 -0.386355D-01
                6             7             8             9 
      6  0.287444D+00
      7  0.232875D-01  0.240505D+00
      8  0.216376D-01 -0.681592D-01  0.168617D+00
      9  0.386470D-01  0.142141D-04 -0.116560D+00  0.233412D+00
 Final forces over variables, Energy=-4.03400204D+01:
  1.42221035D-03 1.42691330D-03 1.42164243D-03 2.59016892D-03
  2.57849920D-03-7.73066341D-03-8.05219262D-08 7.89239561D-08
 -1.84769803D-07

 GradGradGradGradGradGradGradGradGradGradGradGradGradGradGradGradGradGrad
 Berny optimization.
 Search for a local minimum.
 Step number   1 out of a maximum of   50
 All quantities printed in internal units (Hartrees-Bohrs-Radians)
 Second derivative matrix not updated -- first step.
 The second derivative matrix:
                          R1        R2        R3        A2        A3
           R1           0.36103
           R2           0.00000   0.36103
           R3           0.00000   0.00000   0.36103
           A2           0.00000  -0.00000   0.00000   0.28744
           A3           0.00000  -0.00000  -0.00000   0.11418   0.28744
           D3           0.00000  -0.00000   0.00000   0.06043   0.02164
           DH1          0.00000   0.00000  -0.00000  -0.03864   0.03865
           ANG1         0.00000  -0.00000  -0.00000   0.02327   0.02329
           BB           0.00000   0.00000  -0.00000  -0.00000   0.00000
                          D3        DH1      ANG1       BB
           D3           0.16862
           DH1         -0.11656   0.23341
           ANG1        -0.06816   0.00001   0.24051
           BB          -0.00000  -0.00000  -0.00000   0.00100
 ITU=  0
     Eigenvalues ---    0.05339   0.14847   0.24330   0.34982   0.36103
     Eigenvalues ---    0.36103   0.36103   0.422441000.00000
 RFO step:  Lambda=-9.11749505D-04 EMin= 5.33922270D-02
 Linear search not attempted -- first point.
 Variable       Old X    -DE/DX   Delta X   Delta X   Delta X     New X
                                 (Linear)    (Quad)   (Total)
    R1        2.03920   0.00142   0.00000   0.00393   0.00393   2.04313
    R2        2.03920   0.00143   0.00000   0.00394   0.00394   2.04315
    R3        2.03920   0.00142   0.00000   0.00393   0.00393   2.04313
    A2        2.04403   0.00259   0.00000   0.01898   0.01898   2.06301
    A3        2.04417   0.00258   0.00000   0.01869   0.01869   2.06285
    D3        3.71950  -0.00773   0.00000  -0.10317  -0.10317   3.61633
   DH1        1.85965  -0.00000   0.00000  -0.05127  -0.05127   1.80838
   ANG1       1.74329   0.00000   0.00000  -0.03276  -0.03276   1.71053
    BB       18.89726  -0.00000   0.00000   0.00000   0.00000  18.89726
         Item               Value     Threshold  Converged?
 Maximum Force            0.007731     0.000450     NO 
 RMS     Force            0.003146     0.000300     NO 
 Maximum Displacement     0.103174     0.001800     NO 
 RMS     Displacement     0.040964     0.001200     NO 
 Predicted change in Energy=-4.627581D-04
 GradGradGradGradGradGradGradGradGradGradGradGradGradGradGradGradGradGrad

 ---------------------------------------------------------------------------------------------------
                            Z-MATRIX (ANGSTROMS AND DEGREES)
   CD    Cent   Atom    N1       Length/X        N2       Alpha/Y        N3        Beta/Z          J
 ---------------------------------------------------------------------------------------------------
      1      1  C 
      2      2  H        1   1.081179(     1)
      3      3  H        1   1.081186(     2)      2  118.202(     5)
      4      4  H        1   1.081178(     3)      2  118.193(     6)      3  207.200(     8)      0
      5      5  H        1  10.000000(     4)      2   98.006(     7)      3  103.612(     9)      0
 ---------------------------------------------------------------------------------------------------
                         Z-Matrix orientation:                         
 ---------------------------------------------------------------------
 Center     Atomic      Atomic             Coordinates (Angstroms)
 Number     Number       Type             X           Y           Z
 ---------------------------------------------------------------------
      1          6           0        0.000000    0.000000    0.000000
      2          1           0        0.000000    0.000000    1.081179
      3          1           0        0.952838    0.000000   -0.510944
      4          1           0       -0.847531    0.435580   -0.510791
      5          1           0       -2.330580   -9.624374   -1.392772
 ---------------------------------------------------------------------
                    Distance matrix (angstroms):
                    1          2          3          4          5
     1  C    0.000000
     2  H    1.081179   0.000000
     3  H    1.081186   1.855467   0.000000
     4  H    1.081178   1.855373   1.852312   0.000000
     5  H   10.000000  10.206891  10.207205  10.206861   0.000000
 Symmetry turned off by external request.
 Stoichiometry    CH4(3)
 Framework group  C1[X(CH4)]
 Deg. of freedom     9
 Full point group                 C1      NOp   1
 Rotational constants (GHZ):    145.8250420      5.2206330      5.2202151
 Standard basis: Aug-CC-pVTZ (5D, 7F)
   138 basis functions,   180 primitive gaussians,   155 cartesian basis functions
     6 alpha electrons        4 beta electrons
       nuclear repulsion energy        10.1391207307 Hartrees.
 NAtoms=    5 NActive=    5 NUniq=    5 SFac= 1.00D+00 NAtFMM=   60 NAOKFM=F Big=F
 Integral buffers will be    131072 words long.
 Raffenetti 2 integral format.
 Two-electron integral symmetry is turned off.
 Nuclear repulsion after empirical dispersion term =       10.1388720033 Hartrees.
 One-electron integrals computed using PRISM.
 NBasis=   138 RedAO= T EigKep=  1.09D-04  NBF=   138
 NBsUse=   138 1.00D-06 EigRej= -1.00D+00 NBFU=   138
 Initial guess from the checkpoint file:  "tmp.chk"
 B after Tr=    -0.004604   -0.018722   -0.003457
         Rot=    0.999537    0.015816   -0.004334   -0.025645 Ang=   3.49 deg.
 Initial guess <Sx>= 0.0000 <Sy>= 0.0000 <Sz>= 1.0000 <S**2>= 2.0036 S= 1.0012
 ExpMin= 2.53D-02 ExpMax= 8.24D+03 ExpMxC= 2.81D+02 IAcc=3 IRadAn=         5 AccDes= 0.00D+00
 Harris functional with IExCor= 4639 and IRadAn=       5 diagonalized for initial guess.
 HarFok:  IExCor= 4639 AccDes= 0.00D+00 IRadAn=         5 IDoV= 1 UseB2=F ITyADJ=14
 ICtDFT=  3500011 ScaDFX=  1.000000  1.000000  1.000000  1.000000
 FoFCou: FMM=F IPFlag=           0 FMFlag=      100000 FMFlg1=           0
         NFxFlg=           0 DoJE=T BraDBF=F KetDBF=T FulRan=T
         wScrn=  0.000000 ICntrl=     500 IOpCl=  0 I1Cent=   200000004 NGrid=           0
         NMat0=    1 NMatS0=      1 NMatT0=    0 NMatD0=    1 NMtDS0=    0 NMtDT0=    0
 Symmetry not used in FoFCou.
 Keep R1 and R2 ints in memory in canonical form, NReq=186081203.
 Requested convergence on RMS density matrix=1.00D-08 within 128 cycles.
 Requested convergence on MAX density matrix=1.00D-06.
 Requested convergence on             energy=1.00D-06.
 No special actions if energy rises.
 SCF Done:  E(UwB97XD) =  -40.3407784874     A.U. after    9 cycles
            NFock=  9  Conv=0.57D-08     -V/T= 2.0070
 <Sx>= 0.0000 <Sy>= 0.0000 <Sz>= 1.0000 <S**2>= 2.0037 S= 1.0012
 <L.S>=  0.00000000000    
 Annihilation of the first spin contaminant:
 S**2 before annihilation     2.0037,   after     2.0000
 DipInt: DoE/N= T T RetVal/Mat= T F Init=T NMatP=  1 IDeriv=0 Min/MaxMlt=  1  1
 Entering OneElI...
 Multipole integrals L=1 to 1 MinM= 0 MaxM= 0.
 Requested accuracy = 0.1000D-12
 PrsmSu:  NPrtUS=   1 ThrOK=F IAlg=1 NPAlg=1 LenDen=           0.
 Prism:   IPart=     0 DynPar=F LinDyn=F Incr=          11.
 PRISM was handed   419330724 working-precision words and  1107 shell-pairs
 IPart=  0 NShTot=        1107 NBatch=          37 AvBLen=        29.9
 PrSmSu:  NxtVal=             12.
 Entering OneElI...
 Calculate overlap and kinetic energy integrals
    NBasis = 155  MinDer = 1  MaxDer = 1
 Requested accuracy = 0.1000D-12
 PrsmSu:  NPrtUS=  32 ThrOK=T IAlg=1 NPAlg=1 LenDen=           0.
 Prism:   IPart=     0 DynPar=F LinDyn=F Incr=           1.
 PRISM was handed    13085285 working-precision words and  1127 shell-pairs
 PRISM was handed    13085285 working-precision words and  1127 shell-pairs
 PRISM was handed    13085285 working-precision words and  1127 shell-pairs
 PRISM was handed    13085285 working-precision words and  1127 shell-pairs
 PRISM was handed    13085285 working-precision words and  1127 shell-pairs
 PRISM was handed    13085285 working-precision words and  1127 shell-pairs
 PRISM was handed    13085285 working-precision words and  1127 shell-pairs
 PRISM was handed    13085285 working-precision words and  1127 shell-pairs
 PRISM was handed    13085285 working-precision words and  1127 shell-pairs
 PRISM was handed    13085285 working-precision words and  1127 shell-pairs
 PRISM was handed    13085285 working-precision words and  1127 shell-pairs
 PRISM was handed    13085285 working-precision words and  1127 shell-pairs
 PRISM was handed    13085285 working-precision words and  1127 shell-pairs
[...]
     2  H    0.349179  -0.008329
     3  H    0.349167  -0.008384
     4  H    0.349167  -0.008385
     5  H   -0.000001   1.000001
 Sum of Mulliken charges =  -0.00000   2.00000
 Mulliken charges and spin densities with hydrogens summed into heavy atoms:
               1          2
     1  C   -0.000000   2.000000
 APT charges:
               1
     1  C   -0.136087
     2  H    0.045641
     3  H    0.045219
     4  H    0.045225
     5  H    0.000002
 Sum of APT charges =   0.00000
 APT charges with hydrogens summed into heavy atoms:
               1
     1  C    0.000000
 Electronic spatial extent (au):  <R**2>=            390.1830
 Charge=             -0.0000 electrons
 Dipole moment (field-independent basis, Debye):
    X=              0.0000    Y=              0.0005    Z=             -0.0000  Tot=              0.0005
 Quadrupole moment (field-independent basis, Debye-Ang):
   XX=             -8.6102   YY=            -10.5156   ZZ=             -8.6098
   XY=             -0.0000   XZ=              0.0001   YZ=              0.0000
 Traceless Quadrupole moment (field-independent basis, Debye-Ang):
   XX=              0.6350   YY=             -1.2704   ZZ=              0.6354
   XY=             -0.0000   XZ=              0.0001   YZ=              0.0000
 Octapole moment (field-independent basis, Debye-Ang**2):
  XXX=             -0.1724  YYY=             42.7374  ZZZ=              0.7663  XYY=             -0.0582
  XXY=             14.2022  XXZ=             -0.9713  XZZ=             -0.0575  YZZ=             14.2021
  YYZ=             -0.0518  XYZ=              0.0000
 Hexadecapole moment (field-independent basis, Debye-Ang**3):
 XXXX=            -16.9260 YYYY=           -867.8741 ZZZZ=            -16.9229 XXXY=              1.7234
 XXXZ=             -0.0062 YYYX=              1.7322 YYYZ=              1.5480 ZZZX=             -0.0062
 ZZZY=              1.5403 XXYY=           -147.6003 XXZZ=             -5.6413 YYZZ=           -147.5999
 XXYZ=              0.5134 YYXZ=             -0.0021 ZZXY=              0.5745
 N-N= 1.015893769973D+01 E-N=-1.132011749652D+02  KE= 4.006366942479D+01
  Exact polarizability:  21.171  -0.000  21.583   0.000  -0.000  21.165
 Approx polarizability:  17.874  -0.000  16.985   0.000  -0.000  17.874
                          Isotropic Fermi Contact Couplings
        Atom                 a.u.       MegaHertz       Gauss      10(-4) cm-1
     1  C(13)              0.01739       9.77298       3.48724       3.25991
     2  H(1)              -0.01402     -31.34207     -11.18363     -10.45459
     3  H(1)              -0.01403     -31.34896     -11.18609     -10.45689
     4  H(1)              -0.01403     -31.34925     -11.18619     -10.45699
     5  H(1)               0.29165     651.81407     232.58346     217.42177
 --------------------------------------------------------
       Center         ----  Spin Dipole Couplings  ----
                      3XX-RR        3YY-RR        3ZZ-RR
 --------------------------------------------------------
     1   Atom       -0.568187      1.136427     -0.568241
     2   Atom       -0.077961      0.002610      0.075351
     3   Atom        0.037012      0.002611     -0.039623
     4   Atom        0.037006      0.002610     -0.039616
     5   Atom       -0.000152      0.000304     -0.000152
 --------------------------------------------------------
                        XY            XZ            YZ
 --------------------------------------------------------
     1   Atom        0.000058     -0.000001      0.000033
     2   Atom        0.000001     -0.000000      0.000045
     3   Atom        0.000040     -0.066392     -0.000023
     4   Atom       -0.000046      0.066396     -0.000027
     5   Atom       -0.000002      0.000000     -0.000002
 --------------------------------------------------------


 ---------------------------------------------------------------------------------
              Anisotropic Spin Dipole Couplings in Principal Axis System
 ---------------------------------------------------------------------------------

       Atom             a.u.   MegaHertz   Gauss  10(-4) cm-1        Axes

              Baa    -0.5682   -76.252   -27.209   -25.435  0.0125 -0.0000  0.9999
     1 C(13)  Bbb    -0.5682   -76.245   -27.206   -25.433  0.9999 -0.0000 -0.0125
              Bcc     1.1364   152.498    54.415    50.868  0.0000  1.0000  0.0000
 
              Baa    -0.0780   -41.596   -14.843   -13.875  1.0000 -0.0000  0.0000
     2 H(1)   Bbb     0.0026     1.393     0.497     0.465  0.0000  1.0000 -0.0006
              Bcc     0.0754    40.204    14.346    13.411 -0.0000  0.0006  1.0000
 
              Baa    -0.0780   -41.596   -14.843   -13.875  0.5001 -0.0000  0.8660
     3 H(1)   Bbb     0.0026     1.393     0.497     0.465 -0.0005  1.0000  0.0003
              Bcc     0.0754    40.203    14.346    13.410  0.8660  0.0006 -0.5001
 
              Baa    -0.0780   -41.596   -14.843   -13.875 -0.5001  0.0000  0.8660
     4 H(1)   Bbb     0.0026     1.392     0.497     0.464  0.0006  1.0000  0.0004
              Bcc     0.0754    40.204    14.346    13.411  0.8660 -0.0007  0.5001
 
              Baa    -0.0002    -0.081    -0.029    -0.027  0.9701  0.0049  0.2427
     5 H(1)   Bbb    -0.0002    -0.081    -0.029    -0.027 -0.2427  0.0026  0.9701
              Bcc     0.0003     0.162     0.058     0.054 -0.0041  1.0000 -0.0037
 

 ---------------------------------------------------------------------------------

 Calling FoFJK, ICntrl=    100127 FMM=F ISym2X=0 I1Cent= 0 IOpClX= 1 NMat=1 NMatS=1 NMatT=0.
 Full mass-weighted force constant matrix:
 Low frequencies ---  -12.9500   -0.8465   -0.0004    0.0006    0.0008    0.4395
 Low frequencies ---    0.4588   43.5413   84.7498
 ******    1 imaginary frequencies (negative Signs) ****** 
 Diagonal vibrational polarizability:
        0.0511326       7.8109995       0.0510186
 Harmonic frequencies (cm**-1), IR intensities (KM/Mole), Raman scattering
 activities (A**4/AMU), depolarization ratios for plane and unpolarized
 incident light, reduced masses (AMU), force constants (mDyne/A),
 and normal coordinates:
                      1                      2                      3
                      A                      A                      A
 Frequencies --     -0.8461                43.1416                83.9716
 Red. masses --      1.0564                 1.0087                 1.0087
 Frc consts  --      0.0000                 0.0011                 0.0042
 IR Inten    --  0.1854E-05             0.4259E-05             0.3269E-02
  Atom  AN      X      Y      Z        X      Y      Z        X      Y      Z
     1   6    -0.00   0.07  -0.00     0.01   0.00  -0.00     0.00   0.00   0.01
     2   1    -0.00   0.07  -0.00     0.01  -0.00  -0.00    -0.00   0.80   0.01
     3   1    -0.00   0.07  -0.00     0.01   0.70  -0.00     0.00  -0.41   0.01
     4   1    -0.00   0.07  -0.00     0.01  -0.70   0.00     0.00  -0.41   0.01
     5   1     0.00  -0.99   0.00    -0.13  -0.00   0.00    -0.00  -0.00  -0.13
                      4                      5                      6
                      A                      A                      A
 Frequencies --    527.6989              1409.8095              1409.9070
 Red. masses --      1.2356                 1.1019                 1.1019
 Frc consts  --      0.2027                 1.2904                 1.2905
 IR Inten    --   79.97                  2.969                  2.958    
  Atom  AN      X      Y      Z        X      Y      Z        X      Y      Z
     1   6     0.00   0.14  -0.00    -0.09   0.00   0.01     0.01  -0.00   0.09
     2   1    -0.00  -0.58  -0.00     0.80  -0.00   0.01    -0.09  -0.00   0.07
     3   1    -0.00  -0.57  -0.00     0.10   0.00   0.31    -0.40   0.00  -0.63
     4   1    -0.00  -0.57  -0.00     0.19  -0.00  -0.45     0.36   0.00  -0.54
     5   1     0.00   0.00   0.00     0.00   0.00   0.00     0.00   0.00  -0.00
                      7                      8                      9
                      A                      A                      A
 Frequencies --   3122.1552              3303.2688              3303.5060
 Red. masses --      1.0078                 1.1186                 1.1185
 Frc consts  --      5.7882                 7.1911                 7.1920
 IR Inten    --  0.2501E-03              4.444                  4.409    
  Atom  AN      X      Y      Z        X      Y      Z        X      Y      Z
     1   6    -0.00  -0.00  -0.00    -0.01  -0.00   0.10     0.10  -0.00   0.01
     2   1    -0.00  -0.00   0.58    -0.00   0.00  -0.81     0.02  -0.00  -0.05
     3   1     0.50  -0.00  -0.29     0.39  -0.00  -0.21    -0.58  -0.00   0.35
     4   1    -0.50   0.00  -0.29    -0.32   0.00  -0.17    -0.62   0.00  -0.37
     5   1     0.00   0.00   0.00     0.00   0.00  -0.00     0.00  -0.00  -0.00

 -------------------
 - Thermochemistry -
 -------------------
 Temperature   298.150 Kelvin.  Pressure   1.00000 Atm.
 Atom     1 has atomic number  6 and mass  12.00000
 Atom     2 has atomic number  1 and mass   1.00783
 Atom     3 has atomic number  1 and mass   1.00783
 Atom     4 has atomic number  1 and mass   1.00783
 Atom     5 has atomic number  1 and mass   1.00783
 Molecular mass:    16.03130 amu.
 Principal axes and moments of inertia in atomic units:
                           1         2         3
     Eigenvalues --    12.55301 343.55189 343.55271
           X           -0.00412   0.00674   0.99997
           Y            0.99998   0.00371   0.00410
           Z           -0.00368   0.99997  -0.00676
 This molecule is an asymmetric top.
 Rotational symmetry number  1.
 Rotational temperatures (Kelvin)      6.89984     0.25211     0.25211
 Rotational constants (GHZ):         143.76955     5.25318     5.25317
    1 imaginary frequencies ignored.
 Zero-point vibrational energy      78974.2 (Joules/Mol)
                                   18.87529 (Kcal/Mol)
 Warning -- explicit consideration of   3 degrees of freedom as
           vibrations may cause significant error
 Vibrational temperatures:     62.07   120.82   759.24  2028.40  2028.54
          (Kelvin)           4492.08  4752.66  4753.00
 
 Zero-point correction=                           0.030080 (Hartree/Particle)
 Thermal correction to Energy=                    0.034746
 Thermal correction to Enthalpy=                  0.035690
 Thermal correction to Gibbs Free Energy=         0.003430
 Sum of electronic and zero-point Energies=            -40.311900
 Sum of electronic and thermal Energies=               -40.307233
 Sum of electronic and thermal Enthalpies=             -40.306289
 Sum of electronic and thermal Free Energies=          -40.338549
 
                     E (Thermal)             CV                S
                      KCal/Mol        Cal/Mol-Kelvin    Cal/Mol-Kelvin
 Total                   21.803             11.295             67.897
 Electronic               0.000              0.000              2.183
 Translational            0.889              2.981             34.261
 Rotational               0.889              2.981             21.921
 Vibrational             20.026              5.334              9.532
 Vibration     1          0.595              1.980              5.109
 Vibration     2          0.601              1.960              3.796
 Vibration     3          0.883              1.189              0.592
                       Q            Log10(Q)             Ln(Q)
 Total Bot       0.264411D-01         -1.577721         -3.632837
 Total V=0       0.181112D+13         12.257947         28.224967
 Vib (Bot)       0.253534D-12        -12.595964        -29.003278
 Vib (Bot)    1  0.479470D+01          0.680762          1.567512
 Vib (Bot)    2  0.245099D+01          0.389342          0.896493
 Vib (Bot)    3  0.303718D+00         -0.517530         -1.191656
 Vib (V=0)       0.173662D+02          1.239705          2.854525
 Vib (V=0)    1  0.532070D+01          0.725969          1.671606
 Vib (V=0)    2  0.300147D+01          0.477334          1.099103
 Vib (V=0)    3  0.108502D+01          0.035436          0.081595
 Electronic      0.300000D+01          0.477121          1.098612
 Translational   0.252295D+07          6.401908         14.740939
 Rotational      0.137789D+05          4.139213          9.530891
 -------------------------------------------------------------------
 Center     Atomic                   Forces (Hartrees/Bohr)
 Number     Number              X              Y              Z
 -------------------------------------------------------------------
      1        6           0.000004646    0.000000926    0.000002644
      2        1          -0.000002401   -0.000000365   -0.000000307
      3        1          -0.000002023   -0.000000368   -0.000001906
      4        1          -0.000000221   -0.000000360   -0.000000430
      5        1          -0.000000001    0.000000167   -0.000000001
 -------------------------------------------------------------------
 Cartesian Forces:  Max     0.000004646 RMS     0.000001706
 -----------------------------------------------------------------------------------------------
                       Internal Coordinate Forces (Hartree/Bohr or radian)
  Cent   Atom   N1       Length/X         N2         Alpha/Y        N3         Beta/Z          J
 -----------------------------------------------------------------------------------------------
      1  C 
      2  H        1  -0.000000(     1)
      3  H        1  -0.000001(     2)      2   0.000005(     5)
      4  H        1   0.000000(     3)      2   0.000001(     6)      3  -0.000001(     8)     0
      5  H        1  -0.000000(     4)      2   0.000000(     7)      3  -0.000000(     9)     0
 -----------------------------------------------------------------------------------------------
 Internal  Forces:  Max     0.000005424 RMS     0.000001857

 GradGradGradGradGradGradGradGradGradGradGradGradGradGradGradGradGradGrad
 Berny optimization.
 Search for a local minimum.
 Step number   1 out of a maximum of    2
 All quantities printed in internal units (Hartrees-Bohrs-Radians)
 Second derivative matrix not updated -- analytic derivatives used.
 The second derivative matrix:
                          R1        R2        R3        A2        A3
           R1           0.37164
           R2           0.00003   0.37174
           R3           0.00003   0.00004   0.37175
           A2           0.01583   0.00008  -0.01586   0.18903
           A3           0.01583  -0.01586   0.00008   0.09454   0.18902
           D3          -0.00000  -0.00000  -0.00000   0.00001   0.00001
           DH1         -0.00000  -0.00000   0.00000  -0.00000   0.00000
           ANG1        -0.00000   0.00000   0.00000  -0.00000  -0.00000
           BB          -0.00000  -0.00000  -0.00000  -0.00000  -0.00000
                          D3        DH1      ANG1       BB
           D3           0.00892
           DH1          0.00000  -0.00000
           ANG1         0.00000  -0.00000  -0.00000
           BB           0.00000   0.00000   0.00000  -0.00000
 ITU=  0
     Eigenvalues ---   -0.00000  -0.00000   0.00892   0.09357   0.27575
     Eigenvalues ---    0.37178   0.37262   0.379471000.00000
 Eigenvalue     1 is  -6.93D-07 should be greater than     0.000000 Eigenvector:
                         ANG1       DH1       D3        R1        A3
   1                    0.99577   0.09184  -0.00001   0.00000   0.00000
                          A2        R3        R2        BB
   1                    0.00000  -0.00000  -0.00000   0.00000
 Eigenvalue     2 is  -4.62D-07 should be greater than     0.000000 Eigenvector:
                          DH1      ANG1       D3        R2        R3
   1                    0.99577  -0.09184  -0.00000   0.00000  -0.00000
                          R1        A3        A2        BB
   1                   -0.00000  -0.00000  -0.00000  -0.00000
 Angle between quadratic step and forces=  89.73 degrees.
 Linear search not attempted -- first point.
 Variable       Old X    -DE/DX   Delta X   Delta X   Delta X     New X
                                 (Linear)    (Quad)   (Total)
    R1        2.03761  -0.00000   0.00000  -0.00000  -0.00000   2.03761
    R2        2.03763  -0.00000   0.00000  -0.00000  -0.00000   2.03763
    R3        2.03763   0.00000   0.00000   0.00000   0.00000   2.03763
    A2        2.09443   0.00001   0.00000   0.00004   0.00004   2.09447
    A3        2.09448   0.00000   0.00000  -0.00002  -0.00002   2.09447
    D3        3.14166  -0.00000   0.00000  -0.00007  -0.00007   3.14159
   DH1        1.56675  -0.00000   0.00000  -0.00524  -0.00524   1.56151
   ANG1       1.56718   0.00000   0.00000   0.02309   0.02309   1.59027
    BB       18.89726  -0.00000   0.00000   0.00000   0.00000  18.89726
         Item               Value     Threshold  Converged?
 Maximum Force            0.000005     0.000450     YES
 RMS     Force            0.000002     0.000300     YES
 Maximum Displacement     0.023092     0.001800     NO 
 RMS     Displacement     0.007893     0.001200     NO 
 Predicted change in Energy=-6.844504D-10
 GradGradGradGradGradGradGradGradGradGradGradGradGradGradGradGradGradGrad


 Test job not archived.
 1\1\GINC-NODE-6-11\Freq\UwB97XD\Aug-CC-pVTZ\C1H4(3)\CAVALLOTTI\03-Jun-
 2023\1\\#N Geom=AllCheck Guess=TCheck SCRF=Check Test GenChk UwB97XD/A
 ug-CC-pVTZ Freq\\geom 0\\0,3\C\H,1,R1\H,1,R2,2,A2\H,1,R3,2,A3,3,D3,0\H
 ,1,BB,2,ANG1,3,DH1,0\\R1=1.07825791\R2=1.078269\R3=1.07826609\A2=120.0
 0194144\A3=120.00495929\D3=180.00402481\DH1=89.76824773\ANG1=89.792873
 69\BB=10.\\Version=EM64L-G09RevD.01\HF=-40.3419794\S2=2.003965\S2-1=0.
 \S2A=2.000006\RMSD=2.235e-10\RMSF=1.706e-06\ZeroPoint=0.0300797\Therma
 l=0.034746\Dipole=0.0000007,0.0001936,-0.0000021\DipoleDeriv=0.0182285
 ,-0.0000171,-0.000004,-0.0000119,-0.445142,-0.0000061,-0.0000041,-0.00
 00097,0.0186533,0.0442394,0.0000038,-0.0000017,0.0000024,0.1491494,0.0
 000494,0.0000043,0.0000426,-0.0564665,-0.0312323,0.0000384,0.0431218,0
 .0000441,0.1479749,-0.0000231,0.0429732,-0.0000182,0.0189144,-0.031217
 8,-0.0000247,-0.0431161,-0.0000343,0.1479765,-0.0000197,-0.0429733,-0.
 0000144,0.0189165,-0.0000178,-0.0000004,0.,-0.0000004,0.0000412,-0.000
 0004,0.,-0.0000004,-0.0000178\Polar=21.1708166,-0.0002846,21.5831662,0
 .0000193,-0.0002637,21.1652985\PG=C01 [X(C1H4)]\NImag=1\\0.61960665,-0
 .00002087,0.02544715,0.00001131,-0.00001220,0.61961729,-0.05489580,0.0
 0000157,-0.00000010,0.04552544,0.00000161,-0.00861038,-0.00000090,-0.0
 0000148,0.00309608,0.00000069,0.00000131,-0.35815030,-0.00000157,-0.00
 000085,0.37163680,-0.28235944,0.00000198,0.13140046,0.00468465,-0.0000
 0009,-0.00385520,0.29014298,0.,-0.00841961,0.00000186,0.,0.00275778,-0
 .00000012,-0.00000148,0.00286737,0.13143276,0.00000075,-0.13072606,0.0
 2358244,0.00000006,-0.00674371,-0.14127973,-0.00000086,0.12712569,-0.2
 8235140,0.00001732,-0.13141167,0.00468570,-0.00000004,0.00385608,-0.01
 246820,0.00000148,-0.01373547,0.29013389,0.00001926,-0.00841725,0.0000
 1124,-0.00000008,0.00275655,-0.00000035,-0.00000042,0.00279449,0.00000
 006,-0.00001876,0.00286623,-0.13144476,0.00001014,-0.13074092,-0.02358
 076,0.00000169,-0.00674279,0.01373447,-0.00000088,0.01034408,0.1412910
 5,-0.00001095,0.12713963,0.,0.,0.,0.,0.,0.,0.,0.,0.,0.,0.,0.,0.,0.,0.0
 0000009,0.,0.,-0.00000002,0.,0.,-0.00000002,0.,0.,-0.00000002,0.,0.,-0
 .00000003,0.,0.,0.,0.,0.,0.,0.,0.,0.,0.,0.,0.,0.,0.,0.\\-0.00000465,-0
 .00000093,-0.00000264,0.00000240,0.00000036,0.00000031,0.00000202,0.00
 000037,0.00000191,0.00000022,0.00000036,0.00000043,0.,-0.00000017,0.\\
 \@


 FLOATING POINT NUMBERS ARE LIKE SANDPILES:
 EVERY TIME THAT YOU MOVE ONE, YOU LOSE A LITTLE SAND 
 AND YOU PICK UP A LITTLE DIRT.
 Job cpu time:       0 days  0 hours  5 minutes 43.8 seconds.
 File lengths (MBytes):  RWF=     66 Int=      0 D2E=      0 Chk=      3 Scr=      1
 Normal termination of Gaussian 09 at Sat Jun  3 08:56:10 2023.
