 Entering Gaussian System, Link 0=g09
 Input=geom.com
 Output=geom.log
 Initial command:
 /software/cinetica/g09d1/g09d01/d01/build-node-6-2-59348/src/main/l1.exe "/scratch/cc/139126/Gau-153375.inp" -scrdir="/scratch/cc/139126/"
 Entering Link 1 = /software/cinetica/g09d1/g09d01/d01/build-node-6-2-59348/src/main/l1.exe PID=    153376.
  
 Copyright (c) 1988,1990,1992,1993,1995,1998,2003,2009,2013,
            Gaussian, Inc.  All Rights Reserved.
  
 This is part of the Gaussian(R) 09 program.  It is based on
 the Gaussian(R) 03 system (copyright 2003, Gaussian, Inc.),
 the Gaussian(R) 98 system (copyright 1998, Gaussian, Inc.),
 the Gaussian(R) 94 system (copyright 1995, Gaussian, Inc.),
 the Gaussian 92(TM) system (copyright 1992, Gaussian, Inc.),
 the Gaussian 90(TM) system (copyright 1990, Gaussian, Inc.),
 the Gaussian 88(TM) system (copyright 1988, Gaussian, Inc.),
 the Gaussian 86(TM) system (copyright 1986, Carnegie Mellon
 University), and the Gaussian 82(TM) system (copyright 1983,
 Carnegie Mellon University). Gaussian is a federally registered
 trademark of Gaussian, Inc.
  
 This software contains proprietary and confidential information,
 including trade secrets, belonging to Gaussian, Inc.
  
 This software is provided under written license and may be
 used, copied, transmitted, or stored only in accord with that
 written license.
  
 The following legend is applicable only to US Government
 contracts under FAR:
  
                    RESTRICTED RIGHTS LEGEND
  
 Use, reproduction and disclosure by the US Government is
 subject to restrictions as set forth in subparagraphs (a)
 and (c) of the Commercial Computer Software - Restricted
 Rights clause in FAR 52.227-19.
  
 Gaussian, Inc.
 340 Quinnipiac St., Bldg. 40, Wallingford CT 06492
  
  
 ---------------------------------------------------------------
 Warning -- This program may not be used in any manner that
 competes with the business of Gaussian, Inc. or will provide
 assistance to any competitor of Gaussian, Inc.  The licensee
 of this program is prohibited from giving any competitor of
 Gaussian, Inc. access to this program.  By using this program,
 the user acknowledges that Gaussian, Inc. is engaged in the
 business of creating and licensing software in the field of
 computational chemistry and represents and warrants to the
 licensee that it is not a competitor of Gaussian, Inc. and that
 it will not use this program in any manner prohibited above.
 ---------------------------------------------------------------
  

 Cite this work as:
 Gaussian 09, Revision D.01,
 M. J. Frisch, G. W. Trucks, H. B. Schlegel, G. E. Scuseria, 
 M. A. Robb, J. R. Cheeseman, G. Scalmani, V. Barone, B. Mennucci, 
 G. A. Petersson, H. Nakatsuji, M. Caricato, X. Li, H. P. Hratchian, 
 A. F. Izmaylov, J. Bloino, G. Zheng, J. L. Sonnenberg, M. Hada, 
 M. Ehara, K. Toyota, R. Fukuda, J. Hasegawa, M. Ishida, T. Nakajima, 
 Y. Honda, O. Kitao, H. Nakai, T. Vreven, J. A. Montgomery, Jr., 
 J. E. Peralta, F. Ogliaro, M. Bearpark, J. J. Heyd, E. Brothers, 
 K. N. Kudin, V. N. Staroverov, T. Keith, R. Kobayashi, J. Normand, 
 K. Raghavachari, A. Rendell, J. C. Burant, S. S. Iyengar, J. Tomasi, 
 M. Cossi, N. Rega, J. M. Millam, M. Klene, J. E. Knox, J. B. Cross, 
 V. Bakken, C. Adamo, J. Jaramillo, R. Gomperts, R. E. Stratmann, 
 O. Yazyev, A. J. Austin, R. Cammi, C. Pomelli, J. W. Ochterski, 
 R. L. Martin, K. Morokuma, V. G. Zakrzewski, G. A. Voth, 
 P. Salvador, J. J. Dannenberg, S. Dapprich, A. D. Daniels, 
 O. Farkas, J. B. Foresman, J. V. Ortiz, J. Cioslowski, 
 and D. J. Fox, Gaussian, Inc., Wallingford CT, 2013.
 
 ******************************************
 Gaussian 09:  EM64L-G09RevD.01 24-Apr-2013
                27-May-2023 
 ******************************************
 %mem=400MW
 %chk=tmp
 %NProcShared= 32
 Will use up to   32 processors via shared memory.
 ----------------------------------------------------------------------
 # uwb97xd/aug-cc-pvtz opt=(noeig,intern,maxcyc=50) # int=ultrafine nos
 ym freq iop(7/33=1) guess=(mix,always)
 ----------------------------------------------------------------------
 1/6=50,10=7,11=1,14=-1,18=40,26=4,38=1/1,3;
 2/12=2,15=1,17=6,18=5,29=3,40=1/2;
 3/5=16,6=1,7=10,11=2,16=1,25=1,30=1,71=1,74=-58,75=-5,116=2/1,2,3;
 4/13=-1/1;
 5/5=2,38=5/2;
 6/7=2,8=2,9=2,10=2,28=1/1;
 7/29=1,30=1,33=1/1,2,3,16;
 1/6=50,10=7,11=1,14=-1,18=40,26=4/3(2);
 2/15=1,29=3/2;
 99//99;
 2/15=1,29=3/2;
 3/5=16,6=1,7=10,11=2,16=1,25=1,30=1,71=1,74=-58,75=-5,116=2/1,2,3;
 4/13=-1/1;
 5/5=2,38=5/2;
 7/30=1,33=1/1,2,3,16;
 1/6=50,11=1,14=-1,18=40,26=4/3(-5);
 2/15=1,29=3/2;
 6/7=2,8=2,9=2,10=2,19=2,28=1/1;
 99/9=1/99;
 ------
 geom 0
 ------
 Symbolic Z-matrix:
 Charge =  0 Multiplicity = 1
 C1
 H2                   C1   R1
 H3                   C1   R2       H2   A2
 H4                   C1   R3       H2   A3       H3   D3       0
 C21                  C1   BB       H2   ANG1     H3   DH1      0
 H22                  C21  R21      C1   ANG2     H2   DH2      0
 H23                  C21  R22      H22  A22      C1   DH3      0
 H24                  C21  R23      H22  A23      H23  D23      0
       Variables:
  R1                    1.0834                   
  R2                    1.0835                   
  R3                    1.0835                   
  A2                  112.8034                   
  A3                  112.8036                   
  D3                  230.784                    
  R21                   1.0834                   
  R22                   1.0835                   
  R23                   1.0835                   
  A22                 112.8017                   
  A23                 112.8053                   
  D23                 129.2159                   
  ANG2                105.9023                   
  DH3                 115.383                    
  DH2                  60.0096                   
  DH1                 115.3954                   
  ANG1                105.8979                   
       Constants:
  BB                    3.8                      
 

 GradGradGradGradGradGradGradGradGradGradGradGradGradGradGradGradGradGrad
 Berny optimization.
 Initialization pass.
                       ----------------------------
                       !    Initial Parameters    !
                       ! (Angstroms and Degrees)  !
 ----------------------                            ----------------------
 !      Name          Value   Derivative information (Atomic Units)     !
 ------------------------------------------------------------------------
 !       R1          1.0834   estimate D2E/DX2                          !
 !       R2          1.0835   estimate D2E/DX2                          !
 !       R3          1.0835   estimate D2E/DX2                          !
 !       A2        112.8034   estimate D2E/DX2                          !
 !       A3        112.8036   estimate D2E/DX2                          !
 !       D3        230.784    estimate D2E/DX2                          !
 !       R21         1.0834   estimate D2E/DX2                          !
 !       R22         1.0835   estimate D2E/DX2                          !
 !       R23         1.0835   estimate D2E/DX2                          !
 !       A22       112.8017   estimate D2E/DX2                          !
 !       A23       112.8053   estimate D2E/DX2                          !
 !       D23       129.2159   estimate D2E/DX2                          !
 !      ANG2       105.9023   estimate D2E/DX2                          !
 !       DH3       115.383    estimate D2E/DX2                          !
 !       DH2        60.0096   estimate D2E/DX2                          !
 !       DH1       115.3954   estimate D2E/DX2                          !
 !      ANG1       105.8979   estimate D2E/DX2                          !
 !       BB          3.8      Frozen                                    !
 ------------------------------------------------------------------------
 Trust Radius=3.00D-01 FncErr=1.00D-07 GrdErr=1.00D-06
 Number of steps in this run=     50 maximum allowed number of steps=    100.
 GradGradGradGradGradGradGradGradGradGradGradGradGradGradGradGradGradGrad

 ---------------------------------------------------------------------------------------------------
                            Z-MATRIX (ANGSTROMS AND DEGREES)
   CD    Cent   Atom    N1       Length/X        N2       Alpha/Y        N3        Beta/Z          J
 ---------------------------------------------------------------------------------------------------
      1      1  C 
      2      2  H        1   1.083400(     1)
      3      3  H        1   1.083500(     2)      2  112.803(     8)
      4      4  H        1   1.083500(     3)      2  112.804(     9)      3  230.784(    14)      0
      5      5  C        1   3.800000(     4)      2  105.898(    10)      3  115.395(    15)      0
      6      6  H        5   1.083400(     5)      1  105.902(    11)      2   60.010(    16)      0
      7      7  H        5   1.083500(     6)      6  112.802(    12)      1  115.383(    17)      0
      8      8  H        5   1.083500(     7)      6  112.805(    13)      7  129.216(    18)      0
 ---------------------------------------------------------------------------------------------------
                         Z-Matrix orientation:                         
 ---------------------------------------------------------------------
 Center     Atomic      Atomic             Coordinates (Angstroms)
 Number     Number       Type             X           Y           Z
 ---------------------------------------------------------------------
      1          6           0        0.000000    0.000000    0.000000
      2          1           0        0.000000    0.000000    1.083400
      3          1           0        0.998814    0.000000   -0.419932
      4          1           0       -0.631495    0.773848   -0.419936
      5          6           0       -1.567345   -3.301505   -1.040911
      6          1           0       -2.566197   -3.301272   -0.621328
      7          1           0       -0.935707   -4.075273   -0.621042
      8          1           0       -1.566972   -3.301883   -2.124411
 ---------------------------------------------------------------------
                    Distance matrix (angstroms):
                    1          2          3          4          5
     1  C    0.000000
     2  H    1.083400   0.000000
     3  H    1.083500   1.804893   0.000000
     4  H    1.083500   1.804895   1.804646   0.000000
     5  C    3.800000   4.227198   4.227377   4.227283   0.000000
     6  H    4.227270   4.515513   4.862947   4.515554   1.083400
     7  H    4.227184   4.515365   4.515602   4.862814   1.083500
     8  H    4.227406   4.862909   4.515633   4.515743   1.083500
                    6          7          8
     6  H    0.000000
     7  H    1.804875   0.000000
     8  H    1.804912   1.804645   0.000000
 Symmetry turned off by external request.
 Stoichiometry    C2H6
 Framework group  C1[X(C2H6)]
 Deg. of freedom    18
 Full point group                 C1      NOp   1
 Rotational constants (GHZ):     76.9730380      4.2431045      4.2430807
 Standard basis: Aug-CC-pVTZ (5D, 7F)
   230 basis functions,   306 primitive gaussians,   260 cartesian basis functions
     9 alpha electrons        9 beta electrons
       nuclear repulsion energy        29.8914038396 Hartrees.
 NAtoms=    8 NActive=    8 NUniq=    8 SFac= 1.00D+00 NAtFMM=   60 NAOKFM=F Big=F
 Integral buffers will be    131072 words long.
 Raffenetti 2 integral format.
 Two-electron integral symmetry is turned off.
 Nuclear repulsion after empirical dispersion term =       29.8905480892 Hartrees.
 One-electron integrals computed using PRISM.
 NBasis=   230 RedAO= T EigKep=  1.17D-04  NBF=   230
 NBsUse=   230 1.00D-06 EigRej= -1.00D+00 NBFU=   230
 ExpMin= 2.53D-02 ExpMax= 8.24D+03 ExpMxC= 2.81D+02 IAcc=3 IRadAn=         5 AccDes= 0.00D+00
 Harris functional with IExCor= 4639 and IRadAn=       5 diagonalized for initial guess.
 HarFok:  IExCor= 4639 AccDes= 0.00D+00 IRadAn=         5 IDoV= 1 UseB2=F ITyADJ=14
 ICtDFT=  3500011 ScaDFX=  1.000000  1.000000  1.000000  1.000000
 FoFCou: FMM=F IPFlag=           0 FMFlag=      100000 FMFlg1=           0
         NFxFlg=           0 DoJE=T BraDBF=F KetDBF=T FulRan=T
         wScrn=  0.000000 ICntrl=     500 IOpCl=  0 I1Cent=   200000004 NGrid=           0
         NMat0=    1 NMatS0=      1 NMatT0=    0 NMatD0=    1 NMtDS0=    0 NMtDT0=    0
 Symmetry not used in FoFCou.
 Mixing orbitals, IMix= 1 IMixAn=  0 NRI=1 NE=    9 Coef=  7.07106781D-01  7.07106781D-01
 Mixing orbitals, IMix= 1 IMixAn=  0 NRI=1 NE=    9 Coef= -7.07106781D-01  7.07106781D-01
 Initial guess <Sx>= 0.0000 <Sy>= 0.0000 <Sz>= 0.0000 <S**2>= 1.0000 S= 0.6180
 Requested convergence on RMS density matrix=1.00D-08 within 128 cycles.
 Requested convergence on MAX density matrix=1.00D-06.
 Requested convergence on             energy=1.00D-06.
 No special actions if energy rises.
 SCF Done:  E(UwB97XD) =  -79.6672101874     A.U. after   10 cycles
            NFock= 10  Conv=0.76D-08     -V/T= 2.0068
 <Sx>= 0.0000 <Sy>= 0.0000 <Sz>= 0.0000 <S**2>= 0.9763 S= 0.6074
 <L.S>=  0.00000000000    
 Annihilation of the first spin contaminant:
 S**2 before annihilation     0.9763,   after     0.0482

 **********************************************************************

            Population analysis using the SCF density.

 **********************************************************************

 Alpha  occ. eigenvalues --  -10.29772 -10.28603  -0.78652  -0.74626  -0.49559
 Alpha  occ. eigenvalues --   -0.49551  -0.48214  -0.48206  -0.33213
 Alpha virt. eigenvalues --   -0.01074   0.03335   0.04789   0.04790   0.04854
 Alpha virt. eigenvalues --    0.06508   0.06508   0.11389   0.13328   0.13330
 Alpha virt. eigenvalues --    0.13346   0.13463   0.13464   0.14553   0.14988
 Alpha virt. eigenvalues --    0.20491   0.20492   0.21059   0.21061   0.22907
 Alpha virt. eigenvalues --    0.22908   0.26726   0.29252   0.29254   0.30487
 Alpha virt. eigenvalues --    0.32857   0.32858   0.33032   0.33569   0.33569
 Alpha virt. eigenvalues --    0.33959   0.35430   0.36026   0.36475   0.37825
 Alpha virt. eigenvalues --    0.37826   0.38518   0.40170   0.40591   0.40594
 Alpha virt. eigenvalues --    0.41621   0.41622   0.43074   0.44124   0.44127
 Alpha virt. eigenvalues --    0.47970   0.47971   0.51590   0.51591   0.57347
 Alpha virt. eigenvalues --    0.58909   0.58910   0.64775   0.64780   0.68281
 Alpha virt. eigenvalues --    0.69749   0.75768   0.76422   0.76425   0.77176
 Alpha virt. eigenvalues --    0.77179   0.79885   0.79885   0.82117   0.83719
 Alpha virt. eigenvalues --    0.84383   0.86153   0.90445   0.90445   0.91944
 Alpha virt. eigenvalues --    0.93462   0.93464   0.94179   0.94566   0.94567
 Alpha virt. eigenvalues --    0.98303   0.98304   0.98593   1.00138   1.00140
 Alpha virt. eigenvalues --    1.03527   1.04137   1.06007   1.06011   1.06496
 Alpha virt. eigenvalues --    1.07688   1.07690   1.11334   1.11923   1.11925
 Alpha virt. eigenvalues --    1.12733   1.12734   1.14496   1.14502   1.15392
 Alpha virt. eigenvalues --    1.18673   1.18675   1.27521   1.28741   1.36611
 Alpha virt. eigenvalues --    1.36612   1.39215   1.39220   1.43955   1.43957
 Alpha virt. eigenvalues --    1.46190   1.47329   1.47331   1.51144   1.51769
 Alpha virt. eigenvalues --    1.52190   1.52194   1.54070   1.54396   1.54398
 Alpha virt. eigenvalues --    1.58435   1.65037   1.73557   1.73562   1.75679
 Alpha virt. eigenvalues --    1.75686   1.81926   1.83387   1.84774   1.86377
 Alpha virt. eigenvalues --    1.90173   1.90180   1.91400   1.91410   2.03291
 Alpha virt. eigenvalues --    2.03294   2.07167   2.07170   2.11085   2.13289
 Alpha virt. eigenvalues --    2.69849   2.80265   2.80265   2.82294   2.83087
 Alpha virt. eigenvalues --    2.83088   2.87674   2.93762   3.13921   3.13923
 Alpha virt. eigenvalues --    3.19660   3.19662   3.26919   3.32564   3.32567
 Alpha virt. eigenvalues --    3.34405   3.35158   3.35159   3.36186   3.36440
 Alpha virt. eigenvalues --    3.40048   3.40050   3.45875   3.45878   3.47824
 Alpha virt. eigenvalues --    3.51265   3.56308   3.56310   3.60642   3.60645
 Alpha virt. eigenvalues --    3.73484   3.73490   3.74954   3.74958   3.79473
 Alpha virt. eigenvalues --    3.80385   3.80943   3.81429   3.91839   3.91845
 Alpha virt. eigenvalues --    3.92815   3.92819   4.17595   4.18182   4.18187
 Alpha virt. eigenvalues --    4.20266   4.23363   4.23367   4.41806   4.48492
 Alpha virt. eigenvalues --    4.48496   4.49764   4.49766   4.52925   4.62946
 Alpha virt. eigenvalues --    4.62955   4.63960   4.63967   4.64688   4.65324
 Alpha virt. eigenvalues --    4.85360   4.87381   4.92697   4.92726   4.93482
 Alpha virt. eigenvalues --    4.93510   5.13888   5.13908   5.14719   5.16072
 Alpha virt. eigenvalues --    5.16094   5.16309   5.55240   5.56642   5.63517
 Alpha virt. eigenvalues --    5.66686   5.69069   5.69108   5.69804   5.69844
 Alpha virt. eigenvalues --    6.23434   6.23458   6.24965   6.24987  15.83505
 Alpha virt. eigenvalues --   15.87906
  Beta  occ. eigenvalues --  -10.29772 -10.28603  -0.78652  -0.74626  -0.49559
  Beta  occ. eigenvalues --   -0.49551  -0.48214  -0.48206  -0.33213
  Beta virt. eigenvalues --   -0.01074   0.03335   0.04789   0.04790   0.04854
  Beta virt. eigenvalues --    0.06508   0.06508   0.11389   0.13328   0.13329
  Beta virt. eigenvalues --    0.13346   0.13463   0.13464   0.14553   0.14988
  Beta virt. eigenvalues --    0.20491   0.20492   0.21059   0.21060   0.22907
  Beta virt. eigenvalues --    0.22908   0.26726   0.29252   0.29254   0.30487
  Beta virt. eigenvalues --    0.32857   0.32858   0.33032   0.33569   0.33569
  Beta virt. eigenvalues --    0.33959   0.35430   0.36026   0.36475   0.37825
  Beta virt. eigenvalues --    0.37826   0.38518   0.40170   0.40591   0.40594
  Beta virt. eigenvalues --    0.41621   0.41622   0.43074   0.44124   0.44127
  Beta virt. eigenvalues --    0.47970   0.47971   0.51590   0.51591   0.57347
  Beta virt. eigenvalues --    0.58909   0.58910   0.64775   0.64779   0.68281
  Beta virt. eigenvalues --    0.69749   0.75768   0.76422   0.76425   0.77176
  Beta virt. eigenvalues --    0.77179   0.79885   0.79885   0.82117   0.83719
  Beta virt. eigenvalues --    0.84383   0.86153   0.90445   0.90445   0.91944
  Beta virt. eigenvalues --    0.93462   0.93463   0.94179   0.94566   0.94567
  Beta virt. eigenvalues --    0.98303   0.98304   0.98593   1.00139   1.00140
  Beta virt. eigenvalues --    1.03527   1.04137   1.06007   1.06011   1.06496
  Beta virt. eigenvalues --    1.07688   1.07690   1.11334   1.11924   1.11925
  Beta virt. eigenvalues --    1.12733   1.12734   1.14496   1.14501   1.15392
  Beta virt. eigenvalues --    1.18673   1.18675   1.27521   1.28741   1.36611
  Beta virt. eigenvalues --    1.36612   1.39215   1.39220   1.43955   1.43958
  Beta virt. eigenvalues --    1.46190   1.47329   1.47331   1.51144   1.51769
  Beta virt. eigenvalues --    1.52190   1.52194   1.54070   1.54396   1.54398
  Beta virt. eigenvalues --    1.58435   1.65037   1.73557   1.73562   1.75679
  Beta virt. eigenvalues --    1.75686   1.81926   1.83387   1.84774   1.86377
  Beta virt. eigenvalues --    1.90173   1.90180   1.91400   1.91411   2.03291
  Beta virt. eigenvalues --    2.03294   2.07167   2.07170   2.11085   2.13289
  Beta virt. eigenvalues --    2.69849   2.80264   2.80265   2.82294   2.83087
  Beta virt. eigenvalues --    2.83088   2.87674   2.93762   3.13921   3.13923
  Beta virt. eigenvalues --    3.19660   3.19662   3.26919   3.32565   3.32567
  Beta virt. eigenvalues --    3.34405   3.35157   3.35159   3.36186   3.36440
  Beta virt. eigenvalues --    3.40048   3.40050   3.45874   3.45879   3.47824
  Beta virt. eigenvalues --    3.51265   3.56308   3.56310   3.60642   3.60645
  Beta virt. eigenvalues --    3.73484   3.73490   3.74954   3.74958   3.79473
  Beta virt. eigenvalues --    3.80385   3.80943   3.81429   3.91839   3.91845
  Beta virt. eigenvalues --    3.92815   3.92820   4.17595   4.18182   4.18187
  Beta virt. eigenvalues --    4.20266   4.23363   4.23367   4.41806   4.48492
  Beta virt. eigenvalues --    4.48496   4.49764   4.49766   4.52925   4.62946
  Beta virt. eigenvalues --    4.62954   4.63960   4.63967   4.64688   4.65324
  Beta virt. eigenvalues --    4.85360   4.87381   4.92697   4.92726   4.93481
  Beta virt. eigenvalues --    4.93510   5.13888   5.13908   5.14719   5.16072
  Beta virt. eigenvalues --    5.16094   5.16309   5.55241   5.56642   5.63517
  Beta virt. eigenvalues --    5.66685   5.69069   5.69108   5.69804   5.69843
  Beta virt. eigenvalues --    6.23434   6.23457   6.24964   6.24988  15.83505
  Beta virt. eigenvalues --   15.87906
          Condensed to atoms (all electrons):
               1          2          3          4          5          6
     1  C    5.799501   0.364266   0.364205   0.364256   0.006538  -0.000420
     2  H    0.364266   0.322492   0.007268   0.007274  -0.000404  -0.000048
     3  H    0.364205   0.007268   0.322487   0.007267  -0.000419   0.000041
     4  H    0.364256   0.007274   0.007267   0.322536  -0.000409  -0.000048
     5  C    0.006538  -0.000404  -0.000419  -0.000409   5.799500   0.364201
     6  H   -0.000420  -0.000048   0.000041  -0.000048   0.364201   0.322444
     7  H   -0.000409  -0.000047  -0.000048   0.000041   0.364256   0.007264
     8  H   -0.000403   0.000042  -0.000048  -0.000047   0.364271   0.007268
               7          8
     1  C   -0.000409  -0.000403
     2  H   -0.000047   0.000042
     3  H   -0.000048  -0.000048
     4  H    0.000041  -0.000047
     5  C    0.364256   0.364271
     6  H    0.007264   0.007268
     7  H    0.322538   0.007277
     8  H    0.007277   0.322534
          Atomic-Atomic Spin Densities.
               1          2          3          4          5          6
     1  C   -0.962105  -0.015287  -0.015411  -0.015297   0.000000   0.000740
     2  H   -0.015287   0.031825  -0.004997  -0.004994  -0.000723   0.000000
     3  H   -0.015411  -0.004997   0.031807  -0.005001  -0.000738   0.000000
     4  H   -0.015297  -0.004994  -0.005001   0.031865  -0.000728   0.000000
     5  C    0.000000  -0.000723  -0.000738  -0.000728   0.962105   0.015433
     6  H    0.000740   0.000000   0.000000   0.000000   0.015433  -0.031788
     7  H    0.000728   0.000000  -0.000000  -0.000000   0.015295   0.005000
     8  H    0.000721  -0.000000  -0.000000   0.000000   0.015266   0.004997
               7          8
     1  C    0.000728   0.000721
     2  H    0.000000  -0.000000
     3  H   -0.000000  -0.000000
     4  H   -0.000000   0.000000
     5  C    0.015295   0.015266
     6  H    0.005000   0.004997
     7  H   -0.031866   0.004995
     8  H    0.004995  -0.031843
 Mulliken charges and spin densities:
               1          2
     1  C   -0.897534  -1.005910
     2  H    0.299159   0.005824
     3  H    0.299246   0.005660
     4  H    0.299130   0.005846
     5  C   -0.897534   1.005911
     6  H    0.299298  -0.005619
     7  H    0.299128  -0.005848
     8  H    0.299107  -0.005863
 Sum of Mulliken charges =  -0.00000   0.00000
 Mulliken charges and spin densities with hydrogens summed into heavy atoms:
               1          2
     1  C    0.000000  -0.988580
     5  C   -0.000000   0.988580
 Electronic spatial extent (au):  <R**2>=            545.3787
 Charge=             -0.0000 electrons
 Dipole moment (field-independent basis, Debye):
    X=              0.0001    Y=             -0.0000    Z=              0.0000  Tot=              0.0001
 Quadrupole moment (field-independent basis, Debye-Ang):
   XX=            -14.6066   YY=            -13.6152   ZZ=            -14.7671
   XY=              0.6074   XZ=              0.1907   YZ=              0.4033
 Traceless Quadrupole moment (field-independent basis, Debye-Ang):
   XX=             -0.2769   YY=              0.7144   ZZ=             -0.4375
   XY=              0.6074   XZ=              0.1907   YZ=              0.4033
 Octapole moment (field-independent basis, Debye-Ang**2):
  XXX=             34.3366  YYY=             67.4270  ZZZ=             23.0596  XYY=              8.6656
  XXY=             23.1593  XXZ=              7.3037  XZZ=             11.3750  YZZ=             23.9571
  YYZ=              5.7525  XYZ=             -0.9470
 Hexadecapole moment (field-independent basis, Debye-Ang**3):
 XXXX=           -138.9666 YYYY=           -520.0050 ZZZZ=            -75.4942 XXXY=           -115.0003
 XXXZ=            -39.7725 YYYX=           -118.4985 YYYZ=            -78.6880 ZZZX=            -35.6747
 ZZZY=            -75.1382 XXYY=           -110.3047 XXZZ=            -38.4266 YYZZ=           -101.5609
 XXYZ=            -26.9449 YYXZ=            -10.3812 ZZXY=            -38.7012
 N-N= 2.989054808922D+01 E-N=-2.435908597099D+02  KE= 7.912602855737D+01
                          Isotropic Fermi Contact Couplings
        Atom                 a.u.       MegaHertz       Gauss      10(-4) cm-1
     1  C(13)             -0.17595     -98.90211     -35.29073     -32.99019
     2  H(1)               0.00716      15.99478       5.70733       5.33528
     3  H(1)               0.00716      15.99598       5.70776       5.33569
     4  H(1)               0.00716      16.00778       5.71198       5.33962
     5  C(13)              0.17595      98.90241      35.29084      32.99029
     6  H(1)              -0.00715     -15.98619      -5.70427      -5.33242
     7  H(1)              -0.00716     -16.00834      -5.71217      -5.33981
     8  H(1)              -0.00716     -16.00391      -5.71059      -5.33833
 --------------------------------------------------------
       Center         ----  Spin Dipole Couplings  ----
                      3XX-RR        3YY-RR        3ZZ-RR
 --------------------------------------------------------
     1   Atom        0.251959     -0.650543      0.398584
     2   Atom        0.055807      0.018004     -0.073811
     3   Atom       -0.053798      0.018006      0.035792
     4   Atom       -0.003341     -0.032452      0.035794
     5   Atom       -0.251955      0.650683     -0.398728
     6   Atom        0.053832     -0.017992     -0.035840
     7   Atom        0.003365      0.032444     -0.035809
     8   Atom       -0.055793     -0.018010      0.073803
 --------------------------------------------------------
                        XY            XZ            YZ
 --------------------------------------------------------
     1   Atom       -0.552983     -0.174396     -0.367383
     2   Atom       -0.023162      0.000753      0.001588
     3   Atom       -0.007503      0.046833     -0.021963
     4   Atom        0.033669     -0.046621      0.022395
     5   Atom        0.553045      0.174290      0.367139
     6   Atom        0.007473     -0.046813      0.021970
     7   Atom       -0.033673      0.046617     -0.022390
     8   Atom        0.023160     -0.000805     -0.001544
 --------------------------------------------------------


 ---------------------------------------------------------------------------------
              Anisotropic Spin Dipole Couplings in Principal Axis System
 ---------------------------------------------------------------------------------

       Atom             a.u.   MegaHertz   Gauss  10(-4) cm-1        Axes

              Baa    -1.0289  -138.067   -49.266   -46.054  0.4124  0.8688  0.2740
     1 C(13)  Bbb     0.5144    69.032    24.632    23.027  0.5609 -0.4792  0.6751
              Bcc     0.5145    69.034    24.633    23.027  0.7179 -0.1247 -0.6849
 
              Baa    -0.0738   -39.402   -14.060   -13.143 -0.0093 -0.0196  0.9998
     2 H(1)   Bbb     0.0070     3.761     1.342     1.254  0.4287  0.9032  0.0217
              Bcc     0.0668    35.642    12.718    11.889  0.9034 -0.4288 -0.0000
 
              Baa    -0.0738   -39.400   -14.059   -13.142  0.9180 -0.0197 -0.3961
     3 H(1)   Bbb     0.0071     3.764     1.343     1.256  0.1863  0.9032  0.3867
              Bcc     0.0668    35.635    12.716    11.887  0.3501 -0.4288  0.8328
 
              Baa    -0.0738   -39.398   -14.058   -13.142 -0.5956  0.6988 -0.3960
     4 H(1)   Bbb     0.0071     3.764     1.343     1.255  0.5820  0.7153  0.3868
              Bcc     0.0668    35.635    12.715    11.886 -0.5536  0.0001  0.8328
 
              Baa    -0.5145   -69.037   -24.634   -23.028  0.8735 -0.2918 -0.3898
     5 C(13)  Bbb    -0.5144   -69.029   -24.631   -23.026  0.2588 -0.3999  0.8793
              Bcc     1.0289   138.066    49.266    46.054  0.4124  0.8689  0.2738
 
              Baa    -0.0668   -35.642   -12.718   -11.889  0.3498 -0.4285  0.8331
     6 H(1)   Bbb    -0.0071    -3.762    -1.342    -1.255  0.1863  0.9033  0.3865
              Bcc     0.0739    39.404    14.060    13.144  0.9181 -0.0200 -0.3958
 
              Baa    -0.0668   -35.635   -12.715   -11.886 -0.5534  0.0001  0.8329
     7 H(1)   Bbb    -0.0071    -3.764    -1.343    -1.256  0.5821  0.7154  0.3866
              Bcc     0.0738    39.399    14.058    13.142 -0.5958  0.6988 -0.3960
 
              Baa    -0.0668   -35.635   -12.716   -11.887  0.9034 -0.4289  0.0005
     8 H(1)   Bbb    -0.0071    -3.762    -1.343    -1.255  0.4288  0.9032  0.0215
              Bcc     0.0738    39.398    14.058    13.142 -0.0096 -0.0192  0.9998
 

 ---------------------------------------------------------------------------------

 DipInt: DoE/N= T T RetVal/Mat= T F Init=T NMatP=  1 IDeriv=0 Min/MaxMlt=  1  1
 Entering OneElI...
 Multipole integrals L=1 to 1 MinM= 0 MaxM= 0.
 Requested accuracy = 0.1000D-12
 PrsmSu:  NPrtUS=   1 ThrOK=F IAlg=1 NPAlg=1 LenDen=           0.
 Prism:   IPart=     0 DynPar=F LinDyn=F Incr=          32.
 PRISM was handed   419156147 working-precision words and  3299 shell-pairs
 IPart=  0 NShTot=        3299 NBatch=          40 AvBLen=        82.5
 PrSmSu:  NxtVal=             33.
 Entering OneElI...
 Calculate overlap and kinetic energy integrals
    NBasis = 260  MinDer = 1  MaxDer = 1
 Requested accuracy = 0.1000D-12
 PrsmSu:  NPrtUS=  32 ThrOK=T IAlg=1 NPAlg=1 LenDen=           0.
 Prism:   IPart=     0 DynPar=F LinDyn=F Incr=           1.
 PRISM was handed    13044226 working-precision words and  3396 shell-pairs
 PRISM was handed    13044226 working-precision words and  3396 shell-pairs
 PRISM was handed    13044226 working-precision words and  3396 shell-pairs
 PRISM was handed    13044226 working-precision words and  3396 shell-pairs
 PRISM was handed    13044226 working-precision words and  3396 shell-pairs
 PRISM was handed    13044226 working-precision words and  3396 shell-pairs
 PRISM was handed    13044226 working-precision words and  3396 shell-pairs
 PRISM was handed    13044226 working-precision words and  3396 shell-pairs
 PRISM was handed    13044226 working-precision words and  3396 shell-pairs
 PRISM was handed    13044226 working-precision words and  3396 shell-pairs
 PRISM was handed    13044226 working-precision words and  3396 shell-pairs
 PRISM was handed    13044226 working-precision words and  3396 shell-pairs
 PRISM was handed    13044226 working-precision words and  3396 shell-pairs
 PRISM was handed    13044226 working-precision words and  3396 shell-pairs
 PRISM was handed    13044226 working-precision words and  3396 shell-pairs
 PRISM was handed    13044226 working-precision words and  3396 shell-pairs
 PRISM was handed    13044226 working-precision words and  3396 shell-pairs
 PRISM was handed    13044226 working-precision words and  3396 shell-pairs
 PRISM was handed    13044226 working-precision words and  3396 shell-pairs
 PRISM was handed    13044226 working-precision words and  3396 shell-pairs
 PRISM was handed    13044226 working-precision words and  3396 shell-pairs
 PRISM was handed    13044226 working-precision words and  3396 shell-pairs
 PRISM was handed    13044226 working-precision words and  3396 shell-pairs
 PRISM was handed    13044226 working-precision words and  3396 shell-pairs
 PRISM was handed    13044226 working-precision words and  3396 shell-pairs
 PRISM was handed    13044226 working-precision words and  3396 shell-pairs
 PRISM was handed    13044226 working-precision words and  3396 shell-pairs
 PRISM was handed    13044226 working-precision words and  3396 shell-pairs
 PRISM was handed    13044226 working-precision words and  3396 shell-pairs
 PRISM was handed    13044226 working-precision words and  3396 shell-pairs
 PRISM was handed    13044226 working-precision words and  3396 shell-pairs
 PRISM was handed    13044226 working-precision words and  3396 shell-pairs
 IPart=  0 NShTot=         134 NBatch=          42 AvBLen=         3.2
 IPart=  6 NShTot=         114 NBatch=          25 AvBLen=         4.6
 IPart= 18 NShTot=          99 NBatch=          21 AvBLen=         4.7
 IPart= 31 NShTot=          94 NBatch=          19 AvBLen=         4.9
 IPart= 23 NShTot=          99 NBatch=          21 AvBLen=         4.7
 IPart=  8 NShTot=         110 NBatch=          22 AvBLen=         5.0
 IPart=  2 NShTot=         124 NBatch=          33 AvBLen=         3.8
 IPart= 24 NShTot=          97 NBatch=          20 AvBLen=         4.8
 IPart= 21 NShTot=          99 NBatch=          21 AvBLen=         4.7
 IPart= 19 NShTot=          99 NBatch=          21 AvBLen=         4.7
 IPart= 29 NShTot=          95 NBatch=          20 AvBLen=         4.8
 IPart= 14 NShTot=         104 NBatch=          21 AvBLen=         5.0
 IPart= 26 NShTot=          96 NBatch=          20 AvBLen=         4.8
 IPart= 27 NShTot=          95 NBatch=          20 AvBLen=         4.8
 IPart= 16 NShTot=         101 NBatch=          21 AvBLen=         4.8
 IPart=  4 NShTot=         122 NBatch=          33 AvBLen=         3.7
 IPart= 30 NShTot=          94 NBatch=          19 AvBLen=         4.9
 IPart= 25 NShTot=          97 NBatch=          20 AvBLen=         4.8
 IPart= 10 NShTot=         107 NBatch=          21 AvBLen=         5.1
 IPart= 28 NShTot=          95 NBatch=          20 AvBLen=         4.8
 IPart=  7 NShTot=         114 NBatch=          25 AvBLen=         4.6
 IPart= 22 NShTot=          99 NBatch=          21 AvBLen=         4.7
 IPart=  9 NShTot=         110 NBatch=          22 AvBLen=         5.0
 IPart=  1 NShTot=         132 NBatch=          40 AvBLen=         3.3
 IPart=  3 NShTot=         124 NBatch=          33 AvBLen=         3.8
 IPart=  5 NShTot=         122 NBatch=          33 AvBLen=         3.7
 IPart= 11 NShTot=         106 NBatch=          21 AvBLen=         5.0
 IPart= 15 NShTot=         104 NBatch=          21 AvBLen=         5.0
 IPart= 13 NShTot=         105 NBatch=          21 AvBLen=         5.0
 IPart= 20 NShTot=          99 NBatch=          21 AvBLen=         4.7
 IPart= 12 NShTot=         105 NBatch=          21 AvBLen=         5.0
 IPart= 17 NShTot=         101 NBatch=          21 AvBLen=         4.8
 PrSmSu:  NxtVal=             33.
 Entering OneElI...
 Calculate potential energy integrals
    NBasis = 260  MinDer = 1  MaxDer = 1
 Requested accuracy = 0.1000D-12
 PrsmSu:  NPrtUS=  32 ThrOK=T IAlg=1 NPAlg=1 LenDen=           0.
 Prism:   IPart=     0 DynPar=F LinDyn=F Incr=           8.
 PRISM was handed    13050347 working-precision words and  3224 shell-pairs
 PRISM was handed    13050347 working-precision words and  3224 shell-pairs
 PRISM was handed    13050347 working-precision words and  3224 shell-pairs
 PRISM was handed    13050347 working-precision words and  3224 shell-pairs
 PRISM was handed    13050347 working-precision words and  3224 shell-pairs
 PRISM was handed    13050347 working-precision words and  3224 shell-pairs
 PRISM was handed    13050347 working-precision words and  3224 shell-pairs
 PRISM was handed    13050347 working-precision words and  3224 shell-pairs
 PRISM was handed    13050347 working-precision words and  3224 shell-pairs
 PRISM was handed    13050347 working-precision words and  3224 shell-pairs
 PRISM was handed    13050347 working-precision words and  3224 shell-pairs
 PRISM was handed    13050347 working-precision words and  3224 shell-pairs
 PRISM was handed    13050347 working-precision words and  3224 shell-pairs
 PRISM was handed    13050347 working-precision words and  3224 shell-pairs
 PRISM was handed    13050347 working-precision words and  3224 shell-pairs
 PRISM was handed    13050347 working-precision words and  3224 shell-pairs
 PRISM was handed    13050347 working-precision words and  3224 shell-pairs
 PRISM was handed    13050347 working-precision words and  3224 shell-pairs
 PRISM was handed    13050347 working-precision words and  3224 shell-pairs
 PRISM was handed    13050347 working-precision words and  3224 shell-pairs
 PRISM was handed    13050347 working-precision words and  3224 shell-pairs
 PRISM was handed    13050347 working-precision words and  3224 shell-pairs
 PRISM was handed    13050347 working-precision words and  3224 shell-pairs
 PRISM was handed    13050347 working-precision words and  3224 shell-pairs
 PRISM was handed    13050347 working-precision words and  3224 shell-pairs
 PRISM was handed    13050347 working-precision words and  3224 shell-pairs
 PRISM was handed    13050347 working-precision words and  3224 shell-pairs
 PRISM was handed    13050347 working-precision words and  3224 shell-pairs
 PRISM was handed    13050347 working-precision words and  3224 shell-pairs
 PRISM was handed    13050347 working-precision words and  3224 shell-pairs
 PRISM was handed    13050347 working-precision words and  3224 shell-pairs
 PRISM was handed    13050347 working-precision words and  3224 shell-pairs
 IPart= 31 NShTot=         696 NBatch=          87 AvBLen=         8.0
 IPart= 21 NShTot=         752 NBatch=          94 AvBLen=         8.0
 IPart=  2 NShTot=         936 NBatch=         117 AvBLen=         8.0
 IPart=  8 NShTot=         840 NBatch=         105 AvBLen=         8.0
 IPart=  6 NShTot=         856 NBatch=         107 AvBLen=         8.0
 IPart= 18 NShTot=         768 NBatch=          96 AvBLen=         8.0
 IPart= 29 NShTot=         696 NBatch=          87 AvBLen=         8.0
 IPart= 26 NShTot=         744 NBatch=          93 AvBLen=         8.0
 IPart= 27 NShTot=         736 NBatch=          92 AvBLen=         8.0
 IPart= 19 NShTot=         768 NBatch=          96 AvBLen=         8.0
 IPart= 14 NShTot=         800 NBatch=         100 AvBLen=         8.0
 IPart=  4 NShTot=         920 NBatch=         115 AvBLen=         8.0
 IPart= 28 NShTot=         696 NBatch=          87 AvBLen=         8.0
 IPart= 30 NShTot=         696 NBatch=          87 AvBLen=         8.0
 IPart= 25 NShTot=         752 NBatch=          94 AvBLen=         8.0
 IPart= 10 NShTot=         808 NBatch=         101 AvBLen=         8.0
 IPart= 23 NShTot=         752 NBatch=          94 AvBLen=         8.0
 IPart= 16 NShTot=         784 NBatch=          98 AvBLen=         8.0
 IPart=  7 NShTot=         856 NBatch=         107 AvBLen=         8.0
 IPart= 22 NShTot=         752 NBatch=          94 AvBLen=         8.0
 IPart=  1 NShTot=         992 NBatch=         124 AvBLen=         8.0
 IPart=  9 NShTot=         840 NBatch=         105 AvBLen=         8.0
 IPart=  3 NShTot=         936 NBatch=         117 AvBLen=         8.0
 IPart=  5 NShTot=         920 NBatch=         115 AvBLen=         8.0
 IPart= 11 NShTot=         808 NBatch=         101 AvBLen=         8.0
 IPart= 24 NShTot=         752 NBatch=          94 AvBLen=         8.0
 IPart= 15 NShTot=         800 NBatch=         100 AvBLen=         8.0
 IPart= 13 NShTot=         800 NBatch=         100 AvBLen=         8.0
 IPart=  0 NShTot=        1000 NBatch=         125 AvBLen=         8.0
 IPart= 20 NShTot=         752 NBatch=          94 AvBLen=         8.0
 IPart= 12 NShTot=         800 NBatch=         100 AvBLen=         8.0
 IPart= 17 NShTot=         784 NBatch=          98 AvBLen=         8.0
 PrSmSu:  NxtVal=            257.
 l701 out
 I=    0 X=   2.485372728023D-05 Y=  -1.305779389327D-05 Z=   3.485606972831D-06
 I=    1 X=  -5.238053565969D-01 Y=  -1.103955277007D+00 Z=  -3.472488850026D-01
 I=    2 X=   6.925930811008D-02 Y=   1.457947174916D-01 Z=   2.714156152355D+00
 I=    3 X=   2.528466832666D+00 Y=   1.461232198096D-01 Z=  -9.879935790705D-01
 I=    4 X=  -1.485579983349D+00 Y=   2.051368848246D+00 Z=  -9.881919445431D-01
 I=    5 X=   5.227150847691D-01 Y=   1.104136292329D+00 Z=   3.483306521146D-01
 I=    6 X=  -2.528920348377D+00 Y=  -1.454868347196D-01 Z=   9.871808581436D-01
 I=    7 X=   1.486073802463D+00 Y=  -2.051187284372D+00 Z=   9.878089317697D-01
 I=    8 X=  -6.820933968424D-02 Y=  -1.467936817782D-01 Z=  -2.714042185767D+00
 ICntrl=      2127.
 Calling FoFJK, ICntrl=      2127 FMM=F ISym2X=0 I1Cent= 0 IOpClX= 1 NMat=1 NMatS=1 NMatT=0.
 FoFJK:  IHMeth= 1 ICntrl=    2127 DoSepK=T KAlg= 0 I1Cent=   0 FoldK=F
 IRaf=         1 NMat=   1 IRICut=       1 DoRegI=T DoRafI=F ISym2E= 0.
 FoFCou: FMM=F IPFlag=           0 FMFlag=      100000 FMFlg1=         800
         NFxFlg=           0 DoJE=F BraDBF=F KetDBF=F FulRan=T
         wScrn=  0.000000 ICntrl=    2527 IOpCl=  0 I1Cent=           0 NGrid=           0
         NMat0=    1 NMatS0=      1 NMatT0=    0 NMatD0=    1 NMtDS0=    0 NMtDT0=    0
 Symmetry not used in FoFCou.
 FoFCou:  KetSym=F NOpSet=  1 NOpAb=1 NOp=  1.
 FoFCou:  CnvScl= 1.00D+00 Thresh= 1.00D-10 IAcrcy=      10.
 PrismS was handed   419086412 working-precision words and  3261 shell-pairs
 FoFCou: LinMIO=F DoNuc=F BraDBF=F KetDBF=F HaveP=T PDBF=F HaveZ=T HaveW=F
         NIJTC =      10 NIJTAt=       0 NIJTCD=       0 NIJTT =      10
         IJTBeg=       1 IJTEnd=      10 KLTBeg=       1 KLTEnd=      10
         IPTBeg=       1 IPTEnd=      10 IPTBCv=       1 IPTECv=      10
         IZTBeg=       1 IZTEnd=      10 IZTBCv=       1 IZTECv=      10
         IWTBeg=      11 IWTEnd=      10 IWTBCv=      11 IWTECv=      10
         INTBeg=       1 INTEnd=       0 IFTBCv=       1 IFTECv=      10
 NCel replicated for PrismC:     1
 CoulSu:  IncDef=  1024 NBBP=        5318691 NTPThr=   100 NPartT=   32 Incr=        1024 LDynOK=F.
 CoulSu:  NPrtUS=  32 ThrOK=T IAlg=1 NPAlg=1 LenDen=           0 LWGrdD=           0 DoCopy=F.
 Enter PrismC: JobTyp=21 DoJE=F Cont=F.
 PrismC:  IPart=     0 DynPar=T LinDyn=F Incr=        1024 UseFst=F UseS4=T IGathr=2.
 PrismC was handed    13047137 working-precision words and  3261 shell-pairs
 Enter PrismC: JobTyp=21 DoJE=F Cont=F.
 Enter PrismC: JobTyp=21 DoJE=F Cont=F.
 Enter PrismC: JobTyp=21 DoJE=F Cont=F.
 Enter PrismC: JobTyp=21 DoJE=F Cont=F.
 Enter PrismC: JobTyp=21 DoJE=F Cont=F.
 Enter PrismC: JobTyp=21 DoJE=F Cont=F.
 Enter PrismC: JobTyp=21 DoJE=F Cont=F.
 Enter PrismC: JobTyp=21 DoJE=F Cont=F.
 Enter PrismC: JobTyp=21 DoJE=F Cont=F.
 Enter PrismC: JobTyp=21 DoJE=F Cont=F.
 Enter PrismC: JobTyp=21 DoJE=F Cont=F.
 PrismC was handed    13047137 working-precision words and  3261 shell-pairs
 Enter PrismC: JobTyp=21 DoJE=F Cont=F.
 PrismC was handed    13047137 working-precision words and  3261 shell-pairs
 Enter PrismC: JobTyp=21 DoJE=F Cont=F.
 PrismC was handed    13047137 working-precision words and  3261 shell-pairs
 Enter PrismC: JobTyp=21 DoJE=F Cont=F.
 PrismC was handed    13047137 working-precision words and  3261 shell-pairs
 Enter PrismC: JobTyp=21 DoJE=F Cont=F.
 PrismC was handed    13047137 working-precision words and  3261 shell-pairs
 Enter PrismC: JobTyp=21 DoJE=F Cont=F.
 PrismC was handed    13047137 working-precision words and  3261 shell-pairs
 Enter PrismC: JobTyp=21 DoJE=F Cont=F.
 PrismC was handed    13047137 working-precision words and  3261 shell-pairs
 Enter PrismC: JobTyp=21 DoJE=F Cont=F.
 PrismC was handed    13047137 working-precision words and  3261 shell-pairs
 Enter PrismC: JobTyp=21 DoJE=F Cont=F.
 PrismC was handed    13047137 working-precision words and  3261 shell-pairs
 Enter PrismC: JobTyp=21 DoJE=F Cont=F.
 PrismC was handed    13047137 working-precision words and  3261 shell-pairs
 Enter PrismC: JobTyp=21 DoJE=F Cont=F.
 PrismC was handed    13047137 working-precision words and  3261 shell-pairs
 Enter PrismC: JobTyp=21 DoJE=F Cont=F.
 PrismC was handed    13047137 working-precision words and  3261 shell-pairs
 Enter PrismC: JobTyp=21 DoJE=F Cont=F.
 PrismC was handed    13047137 working-precision words and  3261 shell-pairs
 Enter PrismC: JobTyp=21 DoJE=F Cont=F.
 PrismC was handed    13047137 working-precision words and  3261 shell-pairs
 Enter PrismC: JobTyp=21 DoJE=F Cont=F.
 PrismC was handed    13047137 working-precision words and  3261 shell-pairs
 Enter PrismC: JobTyp=21 DoJE=F Cont=F.
 PrismC was handed    13047137 working-precision words and  3261 shell-pairs
 Enter PrismC: JobTyp=21 DoJE=F Cont=F.
 PrismC was handed    13047137 working-precision words and  3261 shell-pairs
 Enter PrismC: JobTyp=21 DoJE=F Cont=F.
 PrismC was handed    13047137 working-precision words and  3261 shell-pairs
 Enter PrismC: JobTyp=21 DoJE=F Cont=F.
 PrismC was handed    13047137 working-precision words and  3261 shell-pairs
 Enter PrismC: JobTyp=21 DoJE=F Cont=F.
 PrismC was handed    13047137 working-precision words and  3261 shell-pairs
 PrismC was handed    13047137 working-precision words and  3261 shell-pairs
 PrismC was handed    13047137 working-precision words and  3261 shell-pairs
 PrismC was handed    13047137 working-precision words and  3261 shell-pairs
 PrismC was handed    13047137 working-precision words and  3261 shell-pairs
 PrismC was handed    13047137 working-precision words and  3261 shell-pairs
 PrismC was handed    13047137 working-precision words and  3261 shell-pairs
 PrismC was handed    13047137 working-precision words and  3261 shell-pairs
 PrismC was handed    13047137 working-precision words and  3261 shell-pairs
 PrismC was handed    13047137 working-precision words and  3261 shell-pairs
 Enter PrismC: JobTyp=21 DoJE=F Cont=F.
 PrismC was handed    13047137 working-precision words and  3261 shell-pairs
 PrismC was handed    13047137 working-precision words and  3261 shell-pairs
 IPart= 25 NShTot=      140227 NShNF=      140227 NShFF=           0 NBatch=        1161 AvBLen=       120.8
 IPart= 26 NShTot=      151939 NShNF=      151939 NShFF=           0 NBatch=        1092 AvBLen=       139.1
 IPart= 12 NShTot=      142860 NShNF=      142860 NShFF=           0 NBatch=        1164 AvBLen=       122.7
 IPart= 20 NShTot=      139495 NShNF=      139495 NShFF=           0 NBatch=        1145 AvBLen=       121.8
 IPart=  0 NShTot=      139552 NShNF=      139552 NShFF=           0 NBatch=         929 AvBLen=       150.2
 IPart=  9 NShTot=      138757 NShNF=      138757 NShFF=           0 NBatch=        1130 AvBLen=       122.8
 IPart= 18 NShTot=      143359 NShNF=      143359 NShFF=           0 NBatch=        1191 AvBLen=       120.4
 IPart= 31 NShTot=      126248 NShNF=      126248 NShFF=           0 NBatch=        1122 AvBLen=       112.5
 IPart= 19 NShTot=      129743 NShNF=      129743 NShFF=           0 NBatch=        1168 AvBLen=       111.1
 IPart= 21 NShTot=      122139 NShNF=      122139 NShFF=           0 NBatch=        1130 AvBLen=       108.1
 IPart=  6 NShTot=      140886 NShNF=      140886 NShFF=           0 NBatch=        1144 AvBLen=       123.2
 IPart=  3 NShTot=      137849 NShNF=      137849 NShFF=           0 NBatch=         993 AvBLen=       138.8
 IPart= 23 NShTot=      138744 NShNF=      138744 NShFF=           0 NBatch=        1107 AvBLen=       125.3
 IPart= 30 NShTot=      131569 NShNF=      131569 NShFF=           0 NBatch=        1051 AvBLen=       125.2
 IPart= 27 NShTot=      140104 NShNF=      140104 NShFF=           0 NBatch=        1155 AvBLen=       121.3
 IPart= 22 NShTot=      134566 NShNF=      134566 NShFF=           0 NBatch=        1000 AvBLen=       134.6
 IPart= 17 NShTot=      123142 NShNF=      123142 NShFF=           0 NBatch=        1070 AvBLen=       115.1
 IPart= 16 NShTot=      140772 NShNF=      140772 NShFF=           0 NBatch=        1150 AvBLen=       122.4
 IPart=  1 NShTot=      134158 NShNF=      134158 NShFF=           0 NBatch=        1174 AvBLen=       114.3
 IPart= 10 NShTot=      133603 NShNF=      133603 NShFF=           0 NBatch=        1161 AvBLen=       115.1
 IPart= 29 NShTot=      142725 NShNF=      142725 NShFF=           0 NBatch=        1191 AvBLen=       119.8
 IPart=  2 NShTot=      128968 NShNF=      128968 NShFF=           0 NBatch=        1135 AvBLen=       113.6
 IPart= 14 NShTot=      133875 NShNF=      133875 NShFF=           0 NBatch=         985 AvBLen=       135.9
 IPart= 28 NShTot=      128947 NShNF=      128947 NShFF=           0 NBatch=        1120 AvBLen=       115.1
 IPart= 11 NShTot=      128855 NShNF=      128855 NShFF=           0 NBatch=        1123 AvBLen=       114.7
 IPart=  8 NShTot=      127541 NShNF=      127541 NShFF=           0 NBatch=        1155 AvBLen=       110.4
 IPart= 13 NShTot=      133632 NShNF=      133632 NShFF=           0 NBatch=        1122 AvBLen=       119.1
 IPart=  4 NShTot=      129346 NShNF=      129346 NShFF=           0 NBatch=        1176 AvBLen=       110.0
 IPart= 15 NShTot=      121169 NShNF=      121169 NShFF=           0 NBatch=        1102 AvBLen=       110.0
 IPart=  5 NShTot=      128519 NShNF=      128519 NShFF=           0 NBatch=        1179 AvBLen=       109.0
 IPart= 24 NShTot=      140263 NShNF=      140263 NShFF=           0 NBatch=        1120 AvBLen=       125.2
 IPart=  7 NShTot=      131088 NShNF=      131088 NShFF=           0 NBatch=        1158 AvBLen=       113.2
 CoulSu:  NxtVal=        5848065.
 FoFCou: FMM=F IPFlag=           0 FMFlag=      100000 FMFlg1=         800
         NFxFlg=           0 DoJE=F BraDBF=F KetDBF=F FulRan=T
         wScrn=  0.000000 ICntrl=    2127 IOpCl=  1 I1Cent=           0 NGrid=           0
         NMat0=    1 NMatS0=      0 NMatT0=    1 NMatD0=    1 NMtDS0=    0 NMtDT0=    0
         CW=    0.222036    0.777964
         WU=    0.000000   12.500000
 Symmetry not used in FoFCou.
 FoFCou:  KetSym=F NOpSet=  1 NOpAb=1 NOp=  1.
 FoFCou:  CnvScl= 1.00D+00 Thresh= 1.00D-10 IAcrcy=      10.
 PrismS was handed   419083065 working-precision words and  3261 shell-pairs
 FoFCou: LinMIO=F DoNuc=F BraDBF=F KetDBF=F HaveP=T PDBF=F HaveZ=T HaveW=F
         NIJTC =      10 NIJTAt=       0 NIJTCD=       0 NIJTT =      10
         IJTBeg=       1 IJTEnd=      10 KLTBeg=       1 KLTEnd=      10
         IPTBeg=       1 IPTEnd=      10 IPTBCv=       1 IPTECv=      10
         IZTBeg=       1 IZTEnd=      10 IZTBCv=       1 IZTECv=      10
         IWTBeg=      11 IWTEnd=      10 IWTBCv=      11 IWTECv=      10
         INTBeg=       1 INTEnd=       0 IFTBCv=       1 IFTECv=      10
 NCel replicated for PrismC:     1
 CoulSu:  IncDef=  1024 NBBP=        5318691 NTPThr=   100 NPartT=   32 Incr=        1024 LDynOK=F.
 CoulSu:  NPrtUS=  32 ThrOK=T IAlg=1 NPAlg=1 LenDen=           0 LWGrdD=           0 DoCopy=F.
 Enter PrismC: JobTyp=21 DoJE=F Cont=F.
 Linear combination for Coulomb/exchange, wScrn=  0.000000
 CW=    0.222036    0.777964
 WU=    0.000000   12.500000
 PrismC:  IPart=     0 DynPar=T LinDyn=F Incr=        1024 UseFst=F UseS4=T IGathr=2.
 PrismC was handed    13047033 working-precision words and  3261 shell-pairs
 Enter PrismC: JobTyp=21 DoJE=F Cont=F.
 Enter PrismC: JobTyp=21 DoJE=F Cont=F.
 Enter PrismC: JobTyp=21 DoJE=F Cont=F.
 Linear combination for Coulomb/exchange, wScrn=  0.000000
 CW=    0.222036    0.777964
 WU=    0.000000   12.500000
 Enter PrismC: JobTyp=21 DoJE=F Cont=F.
 Linear combination for Coulomb/exchange, wScrn=  0.000000
 CW=    0.222036    0.777964
 WU=    0.000000   12.500000
 Enter PrismC: JobTyp=21 DoJE=F Cont=F.
 Linear combination for Coulomb/exchange, wScrn=  0.000000
 CW=    0.222036    0.777964
 WU=    0.000000   12.500000
 Enter PrismC: JobTyp=21 DoJE=F Cont=F.
 Linear combination for Coulomb/exchange, wScrn=  0.000000
 CW=    0.222036    0.777964
 WU=    0.000000   12.500000
 Enter PrismC: JobTyp=21 DoJE=F Cont=F.
 Linear combination for Coulomb/exchange, wScrn=  0.000000
 CW=    0.222036    0.777964
 WU=    0.000000   12.500000
 Enter PrismC: JobTyp=21 DoJE=F Cont=F.
 Linear combination for Coulomb/exchange, wScrn=  0.000000
 CW=    0.222036    0.777964
 WU=    0.000000   12.500000
 Enter PrismC: JobTyp=21 DoJE=F Cont=F.
 Linear combination for Coulomb/exchange, wScrn=  0.000000
 CW=    0.222036    0.777964
 WU=    0.000000   12.500000
 Enter PrismC: JobTyp=21 DoJE=F Cont=F.
 Linear combination for Coulomb/exchange, wScrn=  0.000000
 CW=    0.222036    0.777964
 WU=    0.000000   12.500000
 Enter PrismC: JobTyp=21 DoJE=F Cont=F.
 Linear combination for Coulomb/exchange, wScrn=  0.000000
 CW=    0.222036    0.777964
 WU=    0.000000   12.500000
 Enter PrismC: JobTyp=21 DoJE=F Cont=F.
 Linear combination for Coulomb/exchange, wScrn=  0.000000
 CW=    0.222036    0.777964
 WU=    0.000000   12.500000
 Enter PrismC: JobTyp=21 DoJE=F Cont=F.
 Linear combination for Coulomb/exchange, wScrn=  0.000000
 CW=    0.222036    0.777964
 WU=    0.000000   12.500000
 Linear combination for Coulomb/exchange, wScrn=  0.000000
 CW=    0.222036    0.777964
 WU=    0.000000   12.500000
 PrismC was handed    13047033 working-precision words and  3261 shell-pairs
 Enter PrismC: JobTyp=21 DoJE=F Cont=F.
 Linear combination for Coulomb/exchange, wScrn=  0.000000
 CW=    0.222036    0.777964
 WU=    0.000000   12.500000
 Enter PrismC: JobTyp=21 DoJE=F Cont=F.
 Linear combination for Coulomb/exchange, wScrn=  0.000000
 CW=    0.222036    0.777964
 WU=    0.000000   12.500000
 Enter PrismC: JobTyp=21 DoJE=F Cont=F.
 Linear combination for Coulomb/exchange, wScrn=  0.000000
 CW=    0.222036    0.777964
 WU=    0.000000   12.500000
 Linear combination for Coulomb/exchange, wScrn=  0.000000
 CW=    0.222036    0.777964
 WU=    0.000000   12.500000
 Enter PrismC: JobTyp=21 DoJE=F Cont=F.
 Linear combination for Coulomb/exchange, wScrn=  0.000000
 CW=    0.222036    0.777964
 WU=    0.000000   12.500000
 Enter PrismC: JobTyp=21 DoJE=F Cont=F.
 Linear combination for Coulomb/exchange, wScrn=  0.000000
 CW=    0.222036    0.777964
 WU=    0.000000   12.500000
 Enter PrismC: JobTyp=21 DoJE=F Cont=F.
 Linear combination for Coulomb/exchange, wScrn=  0.000000
 CW=    0.222036    0.777964
 WU=    0.000000   12.500000
 Enter PrismC: JobTyp=21 DoJE=F Cont=F.
 Linear combination for Coulomb/exchange, wScrn=  0.000000
 CW=    0.222036    0.777964
 WU=    0.000000   12.500000
 PrismC was handed    13047033 working-precision words and  3261 shell-pairs
 Enter PrismC: JobTyp=21 DoJE=F Cont=F.
 Linear combination for Coulomb/exchange, wScrn=  0.000000
 CW=    0.222036    0.777964
 WU=    0.000000   12.500000
 Enter PrismC: JobTyp=21 DoJE=F Cont=F.
 Linear combination for Coulomb/exchange, wScrn=  0.000000
 CW=    0.222036    0.777964
 WU=    0.000000   12.500000
 Enter PrismC: JobTyp=21 DoJE=F Cont=F.
 Linear combination for Coulomb/exchange, wScrn=  0.000000
 CW=    0.222036    0.777964
 WU=    0.000000   12.500000
 PrismC was handed    13047033 working-precision words and  3261 shell-pairs
 PrismC was handed    13047033 working-precision words and  3261 shell-pairs
 Enter PrismC: JobTyp=21 DoJE=F Cont=F.
 Linear combination for Coulomb/exchange, wScrn=  0.000000
 CW=    0.222036    0.777964
 WU=    0.000000   12.500000
 Enter PrismC: JobTyp=21 DoJE=F Cont=F.
 Linear combination for Coulomb/exchange, wScrn=  0.000000
 CW=    0.222036    0.777964
 WU=    0.000000   12.500000
 Enter PrismC: JobTyp=21 DoJE=F Cont=F.
 Linear combination for Coulomb/exchange, wScrn=  0.000000
 CW=    0.222036    0.777964
 WU=    0.000000   12.500000
 Enter PrismC: JobTyp=21 DoJE=F Cont=F.
 Linear combination for Coulomb/exchange, wScrn=  0.000000
 CW=    0.222036    0.777964
 WU=    0.000000   12.500000
 Enter PrismC: JobTyp=21 DoJE=F Cont=F.
 Linear combination for Coulomb/exchange, wScrn=  0.000000
 CW=    0.222036    0.777964
 WU=    0.000000   12.500000
 Enter PrismC: JobTyp=21 DoJE=F Cont=F.
 Linear combination for Coulomb/exchange, wScrn=  0.000000
 CW=    0.222036    0.777964
 WU=    0.000000   12.500000
 Enter PrismC: JobTyp=21 DoJE=F Cont=F.
 Linear combination for Coulomb/exchange, wScrn=  0.000000
 CW=    0.222036    0.777964
 WU=    0.000000   12.500000
 PrismC was handed    13047033 working-precision words and  3261 shell-pairs
 PrismC was handed    13047033 working-precision words and  3261 shell-pairs
 PrismC was handed    13047033 working-precision words and  3261 shell-pairs
 PrismC was handed    13047033 working-precision words and  3261 shell-pairs
 PrismC was handed    13047033 working-precision words and  3261 shell-pairs
 PrismC was handed    13047033 working-precision words and  3261 shell-pairs
 PrismC was handed    13047033 working-precision words and  3261 shell-pairs
 PrismC was handed    13047033 working-precision words and  3261 shell-pairs
 PrismC was handed    13047033 working-precision words and  3261 shell-pairs
 PrismC was handed    13047033 working-precision words and  3261 shell-pairs
 PrismC was handed    13047033 working-precision words and  3261 shell-pairs
 Enter PrismC: JobTyp=21 DoJE=F Cont=F.
 Linear combination for Coulomb/exchange, wScrn=  0.000000
 CW=    0.222036    0.777964
 WU=    0.000000   12.500000
 PrismC was handed    13047033 working-precision words and  3261 shell-pairs
 PrismC was handed    13047033 working-precision words and  3261 shell-pairs
 PrismC was handed    13047033 working-precision words and  3261 shell-pairs
 PrismC was handed    13047033 working-precision words and  3261 shell-pairs
 PrismC was handed    13047033 working-precision words and  3261 shell-pairs
 PrismC was handed    13047033 working-precision words and  3261 shell-pairs
 PrismC was handed    13047033 working-precision words and  3261 shell-pairs
 PrismC was handed    13047033 working-precision words and  3261 shell-pairs
 PrismC was handed    13047033 working-precision words and  3261 shell-pairs
 PrismC was handed    13047033 working-precision words and  3261 shell-pairs
 PrismC was handed    13047033 working-precision words and  3261 shell-pairs
 PrismC was handed    13047033 working-precision words and  3261 shell-pairs
 PrismC was handed    13047033 working-precision words and  3261 shell-pairs
 PrismC was handed    13047033 working-precision words and  3261 shell-pairs
 PrismC was handed    13047033 working-precision words and  3261 shell-pairs
 PrismC was handed    13047033 working-precision words and  3261 shell-pairs
 IPart= 15 NShTot=      125944 NShNF=      125944 NShFF=           0 NBatch=        1349 AvBLen=        93.4
 IPart= 14 NShTot=      131722 NShNF=      131722 NShFF=           0 NBatch=        1479 AvBLen=        89.1
 IPart= 22 NShTot=      146304 NShNF=      146304 NShFF=           0 NBatch=        1417 AvBLen=       103.2
 IPart= 11 NShTot=      146948 NShNF=      146948 NShFF=           0 NBatch=        1461 AvBLen=       100.6
 IPart=  1 NShTot=      131729 NShNF=      131729 NShFF=           0 NBatch=        1391 AvBLen=        94.7
 IPart= 24 NShTot=      126642 NShNF=      126642 NShFF=           0 NBatch=        1411 AvBLen=        89.8
 IPart= 26 NShTot=      135476 NShNF=      135476 NShFF=           0 NBatch=        1419 AvBLen=        95.5
 IPart= 10 NShTot=      130190 NShNF=      130190 NShFF=           0 NBatch=        1263 AvBLen=       103.1
 IPart= 17 NShTot=      131222 NShNF=      131222 NShFF=           0 NBatch=        1366 AvBLen=        96.1
 IPart=  0 NShTot=      136008 NShNF=      136008 NShFF=           0 NBatch=        1225 AvBLen=       111.0
 IPart=  7 NShTot=      127804 NShNF=      127804 NShFF=           0 NBatch=        1448 AvBLen=        88.3
 IPart= 31 NShTot=      140279 NShNF=      140279 NShFF=           0 NBatch=        1474 AvBLen=        95.2
 IPart= 29 NShTot=      153766 NShNF=      153766 NShFF=           0 NBatch=        1607 AvBLen=        95.7
 IPart= 28 NShTot=      138733 NShNF=      138733 NShFF=           0 NBatch=        1383 AvBLen=       100.3
 IPart=  8 NShTot=      126713 NShNF=      126713 NShFF=           0 NBatch=        1338 AvBLen=        94.7
 IPart= 19 NShTot=      139933 NShNF=      139933 NShFF=           0 NBatch=        1461 AvBLen=        95.8
 IPart= 16 NShTot=      143532 NShNF=      143532 NShFF=           0 NBatch=        1482 AvBLen=        96.9
 IPart=  2 NShTot=      141894 NShNF=      141894 NShFF=           0 NBatch=        1521 AvBLen=        93.3
 IPart=  6 NShTot=      142828 NShNF=      142828 NShFF=           0 NBatch=        1456 AvBLen=        98.1
 IPart= 13 NShTot=      148412 NShNF=      148412 NShFF=           0 NBatch=        1435 AvBLen=       103.4
 IPart= 30 NShTot=      139201 NShNF=      139201 NShFF=           0 NBatch=        1346 AvBLen=       103.4
 IPart= 21 NShTot=      140058 NShNF=      140058 NShFF=           0 NBatch=        1325 AvBLen=       105.7
 IPart= 20 NShTot=      138265 NShNF=      138265 NShFF=           0 NBatch=        1387 AvBLen=        99.7
 IPart= 27 NShTot=      135583 NShNF=      135583 NShFF=           0 NBatch=        1427 AvBLen=        95.0
 IPart= 23 NShTot=      140150 NShNF=      140150 NShFF=           0 NBatch=        1409 AvBLen=        99.5
 IPart=  3 NShTot=      130792 NShNF=      130792 NShFF=           0 NBatch=        1372 AvBLen=        95.3
 IPart=  4 NShTot=      143912 NShNF=      143912 NShFF=           0 NBatch=        1351 AvBLen=       106.5
 IPart=  9 NShTot=      133230 NShNF=      133230 NShFF=           0 NBatch=        1403 AvBLen=        95.0
 IPart= 12 NShTot=      137807 NShNF=      137807 NShFF=           0 NBatch=        1312 AvBLen=       105.0
 IPart=  5 NShTot=      136550 NShNF=      136550 NShFF=           0 NBatch=        1422 AvBLen=        96.0
 IPart= 25 NShTot=      131985 NShNF=      131985 NShFF=           0 NBatch=        1362 AvBLen=        96.9
 IPart= 18 NShTot=      130166 NShNF=      130166 NShFF=           0 NBatch=        1473 AvBLen=        88.4
 CoulSu:  NxtVal=        5848065.
 ReadGW:  IGet=0 IStart=           1 Next=           1 LGW=           0.
 Remaining memory in FofDFT      399.87 Mw
 CkSvGd:  ISavGI=        -1 IRadAn=       5 IRASav=       5 ISavGd=        -1.
 CalDSu:  NPrtUS=  32 ThrOK=T IAlg=1 NPAlg=2 DoDPD=T LenP=       33930 LenD1P=             0.
 IPart=  0 IRanGd=          0 ScrnBf=T ScrnGd=T RCrit=4.00D+00 DoMicB=T.
 IPart= 19         5488 of         6188 points in       8 batches and       22 microbatches, Max-NSigAt=       8 Max-NSgAt2=       8
 IPart= 16         5252 of         5984 points in       7 batches and       33 microbatches, Max-NSigAt=       8 Max-NSgAt2=       8
 IPart=  3         5282 of         5722 points in       6 batches and       28 microbatches, Max-NSigAt=       8 Max-NSgAt2=       8
 IPart= 11         4978 of         5324 points in       5 batches and       13 microbatches, Max-NSigAt=       8 Max-NSgAt2=       8
 IPart= 14         5250 of         5688 points in       7 batches and       42 microbatches, Max-NSigAt=       8 Max-NSgAt2=       8
 IPart= 30         4696 of         4704 points in       4 batches and       12 microbatches, Max-NSigAt=       8 Max-NSgAt2=       8
 IPart= 26         6007 of         6958 points in       8 batches and       27 microbatches, Max-NSigAt=       8 Max-NSgAt2=       8
 IPart= 25         4323 of         4720 points in       4 batches and       21 microbatches, Max-NSigAt=       8 Max-NSgAt2=       8
 IPart= 20         4739 of         4744 points in       4 batches and       13 microbatches, Max-NSigAt=       8 Max-NSgAt2=       8
 IPart= 28         5446 of         6112 points in       7 batches and       25 microbatches, Max-NSigAt=       8 Max-NSgAt2=       8
 IPart=  4         4629 of         4920 points in       5 batches and       28 microbatches, Max-NSigAt=       8 Max-NSgAt2=       8
 IPart=  5         6486 of         7706 points in      10 batches and       55 microbatches, Max-NSigAt=       8 Max-NSgAt2=       8
 IPart= 27         5237 of         6076 points in       9 batches and       62 microbatches, Max-NSigAt=       8 Max-NSgAt2=       8
 IPart=  2         4997 of         5460 points in       6 batches and       41 microbatches, Max-NSigAt=       8 Max-NSgAt2=       8
 IPart=  6         5276 of         5792 points in       8 batches and       56 microbatches, Max-NSigAt=       8 Max-NSgAt2=       8
 IPart= 22         4985 of         5580 points in       7 batches and       57 microbatches, Max-NSigAt=       8 Max-NSgAt2=       8
 IPart= 18         4691 of         4920 points in       5 batches and       25 microbatches, Max-NSigAt=       8 Max-NSgAt2=       8
 IPart= 15         4998 of         5420 points in       6 batches and       23 microbatches, Max-NSigAt=       8 Max-NSgAt2=       8
 IPart=  0         5445 of         5918 points in       7 batches and       36 microbatches, Max-NSigAt=       8 Max-NSgAt2=       8
 IPart= 29         5043 of         5392 points in       6 batches and       30 microbatches, Max-NSigAt=       8 Max-NSgAt2=       8
 IPart= 31         5923 of         6568 points in       8 batches and       47 microbatches, Max-NSigAt=       8 Max-NSgAt2=       8
 IPart= 13         5120 of         5352 points in       5 batches and       29 microbatches, Max-NSigAt=       8 Max-NSgAt2=       8
 IPart= 21         5568 of         5984 points in       6 batches and       29 microbatches, Max-NSigAt=       8 Max-NSgAt2=       8
 IPart=  9         6575 of         7536 points in       9 batches and       27 microbatches, Max-NSigAt=       8 Max-NSgAt2=       8
 IPart= 10         5622 of         6052 points in       7 batches and       60 microbatches, Max-NSigAt=       8 Max-NSgAt2=       8
 IPart=  1         5483 of         5928 points in       6 batches and       30 microbatches, Max-NSigAt=       8 Max-NSgAt2=       8
 IPart=  7         5466 of         5914 points in       6 batches and       20 microbatches, Max-NSigAt=       8 Max-NSgAt2=       8
 IPart=  8         5542 of         5552 points in       5 batches and       15 microbatches, Max-NSigAt=       8 Max-NSgAt2=       8
 IPart= 12         6123 of         6970 points in       9 batches and       35 microbatches, Max-NSigAt=       8 Max-NSgAt2=       8
 IPart= 17         5112 of         5324 points in       5 batches and       28 microbatches, Max-NSigAt=       8 Max-NSgAt2=       8
 IPart= 24         4942 of         5352 points in       5 batches and       30 microbatches, Max-NSigAt=       8 Max-NSgAt2=       8
 IPart= 23         4807 of         5352 points in       6 batches and       42 microbatches, Max-NSigAt=       8 Max-NSgAt2=       8
 Forces at end of L703
 I=    0 X=   2.485372728023D-05 Y=  -1.305779389327D-05 Z=   3.485606972831D-06
 I=    1 X=  -1.076376429255D-02 Y=  -2.266598121520D-02 Z=  -7.040791308806D-03
 I=    2 X=   4.376430655188D-03 Y=   9.220053242623D-03 Z=  -1.087335752445D-03
 I=    3 X=   7.421382686283D-04 Y=   9.240870769848D-03 Z=   4.412481269169D-03
 I=    4 X=   6.695571292172D-03 Y=   6.415892329302D-03 Z=   4.411854105272D-03
 I=    5 X=   1.066679420820D-02 Y=   2.266924471027D-02 Z=   7.176755457029D-03
 I=    6 X=  -6.955662208501D-04 Y=  -9.224217510215D-03 Z=  -4.448783690724D-03
 I=    7 X=  -6.667023489278D-03 Y=  -6.416708475964D-03 Z=  -4.455072420443D-03
 I=    8 X=  -4.354580421511D-03 Y=  -9.239153850661D-03 Z=   1.030892340938D-03
 FrcOut:
 IF    =    45 IFX   =    69 IFXYZ =    93
 IFFX  =   117 IFFFX =   417 IFLen =    24
 IFFLen=   300 IFFFLn=     0 IEDerv=   417
 LEDerv=  1205 IFroze=  1904 ICStrt=108261
 FCEst1:  Generated internal coordinate force constants:
                1             2             3             4             5 
      1  0.579081D+00
      2 -0.128719D+00  0.368990D+00
      3 -0.406202D-01 -0.855738D-01  0.613495D+00
      4 -0.843368D-01  0.975460D-02 -0.878989D-02  0.623781D-01
      5  0.975456D-02 -0.684109D-01 -0.185192D-01 -0.428559D-02  0.553781D-01
      6  0.000000D+00  0.000000D+00 -0.355866D+00  0.000000D+00  0.000000D+00
      7 -0.318114D+00  0.377809D-02  0.982910D-01  0.149097D-01  0.131829D-03
      8 -0.132919D-01 -0.683767D-01  0.161627D-01  0.340129D-03  0.982059D-03
      9  0.895102D-01  0.898622D-02 -0.121961D+00  0.354628D-01  0.313557D-03
     10 -0.163546D+00  0.112843D+00 -0.496216D-01  0.631816D-02 -0.667094D-02
     11  0.129913D+00 -0.222945D+00  0.863736D-01 -0.687928D-02  0.957358D-02
     12 -0.496298D-01  0.750329D-01 -0.121960D+00 -0.221782D-01  0.276736D-01
     13 -0.170781D-01  0.406810D-02  0.128578D-02  0.730858D-03  0.107016D-02
     14  0.406539D-02 -0.104355D-01  0.270166D-02  0.107020D-02  0.247703D-02
     15  0.128407D-02  0.269985D-02 -0.181592D-01 -0.449490D-02 -0.946790D-02
     16 -0.149625D-02  0.415323D-03  0.935668D-03 -0.187469D-03  0.889986D-04
     17 -0.831471D-02  0.248015D-02  0.465341D-02  0.229746D-03 -0.109069D-03
     18 -0.355732D-02  0.987332D-03  0.222485D-02 -0.446413D-03  0.211929D-03
     19  0.475809D-02 -0.320928D-02  0.301456D-02 -0.296569D-03  0.140792D-03
     20  0.551913D-02 -0.377668D-02  0.366827D-02  0.000000D+00  0.000000D+00
     21  0.301317D-02 -0.213202D-02  0.222517D-02  0.446299D-03 -0.211874D-03
     22  0.733068D-03  0.106930D-02 -0.449537D-02  0.484074D-03 -0.229807D-03
     23  0.107410D-02  0.247475D-02 -0.946659D-02 -0.229885D-03  0.109135D-03
     24  0.000000D+00  0.000000D+00  0.176222D-05  0.000000D+00  0.000000D+00
                6             7             8             9            10 
      6  0.355866D+00
      7  0.000000D+00  0.311680D+00
      8  0.000000D+00 -0.166220D-02  0.553596D-01
      9  0.000000D+00 -0.104816D+00 -0.395355D-02  0.106442D+00
     10  0.000000D+00 -0.697917D-02  0.229263D-01 -0.166000D-01  0.159449D+00
     11  0.000000D+00 -0.266260D-02  0.955689D-02 -0.633302D-02 -0.125889D+00
     12  0.000000D+00  0.558862D-02 -0.168651D-01  0.132926D-01  0.632062D-01
     13  0.000000D+00 -0.149556D-02 -0.831232D-02 -0.355720D-02  0.475825D-02
     14  0.000000D+00  0.414858D-03  0.247823D-02  0.986744D-03 -0.320966D-02
     15  0.000000D+00  0.936101D-03  0.465589D-02  0.222653D-02  0.301551D-02
     16  0.000000D+00  0.726566D-04 -0.889783D-04  0.172814D-03  0.114864D-03
     17  0.000000D+00 -0.890413D-04  0.109044D-03 -0.211786D-03 -0.140767D-03
     18  0.000000D+00  0.173014D-03 -0.211881D-03  0.411516D-03  0.273522D-03
     19  0.000000D+00  0.114940D-03 -0.140760D-03  0.273386D-03  0.181711D-03
     20  0.000000D+00  0.000000D+00  0.000000D+00  0.000000D+00  0.000000D+00
     21  0.000000D+00 -0.172970D-03  0.211826D-03 -0.411411D-03 -0.273452D-03
     22  0.000000D+00 -0.187610D-03  0.229755D-03 -0.446233D-03 -0.296596D-03
     23  0.000000D+00  0.890955D-04 -0.109110D-03  0.211915D-03  0.140853D-03
     24  0.000000D+00  0.000000D+00  0.000000D+00  0.000000D+00  0.000000D+00
               11            12            13            14            15 
     11  0.207591D+00
     12 -0.837092D-01  0.106441D+00
     13  0.551802D-02  0.301307D-02  0.579298D+00
     14 -0.377627D-02 -0.213218D-02 -0.128771D+00  0.368950D+00
     15  0.366866D-02  0.222583D-02 -0.406949D-01 -0.854461D-01  0.613317D+00
     16  0.000000D+00 -0.172814D-03 -0.318279D+00  0.383256D-02  0.982693D-01
     17  0.000000D+00  0.211785D-03 -0.132454D-01 -0.683985D-01  0.161357D-01
     18  0.000000D+00 -0.411515D-03  0.894862D-01  0.896404D-02 -0.121937D+00
     19  0.000000D+00 -0.273385D-03 -0.163607D+00  0.112855D+00 -0.496236D-01
     20  0.000000D+00  0.000000D+00  0.129920D+00 -0.222913D+00  0.863684D-01
     21  0.000000D+00  0.411410D-03 -0.496228D-01  0.750229D-01 -0.121929D+00
     22  0.000000D+00  0.446231D-03 -0.843277D-01  0.974325D-02 -0.869159D-02
     23  0.000000D+00 -0.211914D-03  0.975233D-02 -0.683824D-01 -0.186145D-01
     24  0.000000D+00  0.000000D+00  0.898890D-04 -0.970505D-04 -0.355744D+00
               16            17            18            19            20 
     16  0.311846D+00
     17 -0.171771D-02  0.553731D-01
     18 -0.104792D+00 -0.392224D-02  0.106403D+00
     19 -0.696969D-02  0.229267D-01 -0.166046D-01  0.159498D+00
     20 -0.266064D-02  0.956302D-02 -0.633917D-02 -0.125902D+00  0.207559D+00
     21  0.558175D-02 -0.168667D-01  0.132972D-01  0.632092D-01 -0.836918D-01
     22  0.148987D-01  0.351230D-03  0.354674D-01  0.631953D-02 -0.687740D-02
     23  0.130485D-03  0.982217D-03  0.310085D-03 -0.667053D-02  0.956794D-02
     24  0.507562D-05  0.000000D+00  0.120830D-04  0.450279D-05 -0.570685D-05
               21            22            23            24 
     21  0.106424D+00
     22 -0.221811D-01  0.623765D-01
     23  0.276675D-01 -0.428644D-02  0.553575D-01
     24 -0.172909D-04 -0.993441D-04  0.103477D-03  0.355747D+00
 Quadrupole    =-2.05884877D-01 5.31129444D-01-3.25244567D-01
                 4.51576886D-01 1.41798058D-01 2.99856675D-01
 -------------------------------------------------------------------
 Center     Atomic                   Forces (Hartrees/Bohr)
 Number     Number              X              Y              Z
 -------------------------------------------------------------------
      1        6           0.010763764    0.022665981    0.007040791
      2        1          -0.004376431   -0.009220053    0.001087336
      3        1          -0.000742138   -0.009240871   -0.004412481
      4        1          -0.006695571   -0.006415892   -0.004411854
      5        6          -0.010666794   -0.022669245   -0.007176755
      6        1           0.000695566    0.009224218    0.004448784
      7        1           0.006667023    0.006416708    0.004455072
      8        1           0.004354580    0.009239154   -0.001030892
 -------------------------------------------------------------------
 Cartesian Forces:  Max     0.022669245 RMS     0.009107682
 From PutF, contents of force:
   1    0.1087335752D-02
   2    0.1026013790D-02
   3    0.1029986267D-02
   4    0.8917419440D-02
   5    0.8912612483D-02
   6   -0.1744775771D-01
   7    0.1083642128D-02
   8    0.1030591415D-02
   9    0.1029161062D-02
  10    0.8930072037D-02
  11    0.8913721243D-02
  12    0.1743990725D-01
  13    0.2616158413D-05
  14   -0.1625734013D-05
  15   -0.6794687699D-05
  16   -0.1084804931D-04
  17    0.4599540697D-05
  18   -0.2544756612D-02
 -----------------------------------------------------------------------------------------------
                       Internal Coordinate Forces (Hartree/Bohr or radian)
  Cent   Atom   N1       Length/X         N2         Alpha/Y        N3         Beta/Z          J
 -----------------------------------------------------------------------------------------------
      1  C 
      2  H        1   0.001087(     1)
      3  H        1   0.001026(     2)      2   0.008917(     8)
      4  H        1   0.001030(     3)      2   0.008913(     9)      3  -0.017448(    14)     0
      5  C        1  -0.002545(     4)      2   0.000005(    10)      3  -0.000011(    15)     0
      6  H        5   0.001084(     5)      1   0.000003(    11)      2  -0.000007(    16)     0
      7  H        5   0.001031(     6)      6   0.008930(    12)      1  -0.000002(    17)     0
      8  H        5   0.001029(     7)      6   0.008914(    13)      7   0.017440(    18)     0
 -----------------------------------------------------------------------------------------------
 Internal  Forces:  Max     0.017447758 RMS     0.007225717
 Force constants in Cartesian coordinates: 
                1             2             3             4             5 
      1  0.579081D+00
      2 -0.128719D+00  0.368990D+00
      3 -0.406202D-01 -0.855738D-01  0.613495D+00
      4 -0.843368D-01  0.975460D-02 -0.878989D-02  0.623781D-01
      5  0.975456D-02 -0.684109D-01 -0.185192D-01 -0.428559D-02  0.553781D-01
      6  0.000000D+00  0.000000D+00 -0.355866D+00  0.000000D+00  0.000000D+00
      7 -0.318114D+00  0.377809D-02  0.982910D-01  0.149097D-01  0.131829D-03
      8 -0.132919D-01 -0.683767D-01  0.161627D-01  0.340129D-03  0.982059D-03
      9  0.895102D-01  0.898622D-02 -0.121961D+00  0.354628D-01  0.313557D-03
     10 -0.163546D+00  0.112843D+00 -0.496216D-01  0.631816D-02 -0.667094D-02
     11  0.129913D+00 -0.222945D+00  0.863736D-01 -0.687928D-02  0.957358D-02
     12 -0.496298D-01  0.750329D-01 -0.121960D+00 -0.221782D-01  0.276736D-01
     13 -0.170781D-01  0.406810D-02  0.128578D-02  0.730858D-03  0.107016D-02
     14  0.406539D-02 -0.104355D-01  0.270166D-02  0.107020D-02  0.247703D-02
     15  0.128407D-02  0.269985D-02 -0.181592D-01 -0.449490D-02 -0.946790D-02
     16 -0.149625D-02  0.415323D-03  0.935668D-03 -0.187469D-03  0.889986D-04
     17 -0.831471D-02  0.248015D-02  0.465341D-02  0.229746D-03 -0.109069D-03
     18 -0.355732D-02  0.987332D-03  0.222485D-02 -0.446413D-03  0.211929D-03
     19  0.475809D-02 -0.320928D-02  0.301456D-02 -0.296569D-03  0.140792D-03
     20  0.551913D-02 -0.377668D-02  0.366827D-02  0.000000D+00  0.000000D+00
     21  0.301317D-02 -0.213202D-02  0.222517D-02  0.446299D-03 -0.211874D-03
     22  0.733068D-03  0.106930D-02 -0.449537D-02  0.484074D-03 -0.229807D-03
     23  0.107410D-02  0.247475D-02 -0.946659D-02 -0.229885D-03  0.109135D-03
     24  0.000000D+00  0.000000D+00  0.176222D-05  0.000000D+00  0.000000D+00
                6             7             8             9            10 
      6  0.355866D+00
      7  0.000000D+00  0.311680D+00
      8  0.000000D+00 -0.166220D-02  0.553596D-01
      9  0.000000D+00 -0.104816D+00 -0.395355D-02  0.106442D+00
     10  0.000000D+00 -0.697917D-02  0.229263D-01 -0.166000D-01  0.159449D+00
     11  0.000000D+00 -0.266260D-02  0.955689D-02 -0.633302D-02 -0.125889D+00
     12  0.000000D+00  0.558862D-02 -0.168651D-01  0.132926D-01  0.632062D-01
     13  0.000000D+00 -0.149556D-02 -0.831232D-02 -0.355720D-02  0.475825D-02
     14  0.000000D+00  0.414858D-03  0.247823D-02  0.986744D-03 -0.320966D-02
     15  0.000000D+00  0.936101D-03  0.465589D-02  0.222653D-02  0.301551D-02
     16  0.000000D+00  0.726566D-04 -0.889783D-04  0.172814D-03  0.114864D-03
     17  0.000000D+00 -0.890413D-04  0.109044D-03 -0.211786D-03 -0.140767D-03
     18  0.000000D+00  0.173014D-03 -0.211881D-03  0.411516D-03  0.273522D-03
     19  0.000000D+00  0.114940D-03 -0.140760D-03  0.273386D-03  0.181711D-03
     20  0.000000D+00  0.000000D+00  0.000000D+00  0.000000D+00  0.000000D+00
     21  0.000000D+00 -0.172970D-03  0.211826D-03 -0.411411D-03 -0.273452D-03
     22  0.000000D+00 -0.187610D-03  0.229755D-03 -0.446233D-03 -0.296596D-03
     23  0.000000D+00  0.890955D-04 -0.109110D-03  0.211915D-03  0.140853D-03
     24  0.000000D+00  0.000000D+00  0.000000D+00  0.000000D+00  0.000000D+00
               11            12            13            14            15 
     11  0.207591D+00
     12 -0.837092D-01  0.106441D+00
     13  0.551802D-02  0.301307D-02  0.579298D+00
     14 -0.377627D-02 -0.213218D-02 -0.128771D+00  0.368950D+00
     15  0.366866D-02  0.222583D-02 -0.406949D-01 -0.854461D-01  0.613317D+00
     16  0.000000D+00 -0.172814D-03 -0.318279D+00  0.383256D-02  0.982693D-01
     17  0.000000D+00  0.211785D-03 -0.132454D-01 -0.683985D-01  0.161357D-01
     18  0.000000D+00 -0.411515D-03  0.894862D-01  0.896404D-02 -0.121937D+00
     19  0.000000D+00 -0.273385D-03 -0.163607D+00  0.112855D+00 -0.496236D-01
     20  0.000000D+00  0.000000D+00  0.129920D+00 -0.222913D+00  0.863684D-01
     21  0.000000D+00  0.411410D-03 -0.496228D-01  0.750229D-01 -0.121929D+00
     22  0.000000D+00  0.446231D-03 -0.843277D-01  0.974325D-02 -0.869159D-02
     23  0.000000D+00 -0.211914D-03  0.975233D-02 -0.683824D-01 -0.186145D-01
     24  0.000000D+00  0.000000D+00  0.898890D-04 -0.970505D-04 -0.355744D+00
               16            17            18            19            20 
     16  0.311846D+00
     17 -0.171771D-02  0.553731D-01
[...]
     2   1    -0.00  -0.00   0.41    -0.00   0.00   0.40    -0.00  -0.00   0.34
     3   1     0.36  -0.00  -0.21     0.35   0.00  -0.20    -0.07   0.00   0.03
     4   1    -0.36   0.00  -0.21    -0.35   0.00  -0.20     0.23  -0.00   0.13
     5   6     0.00  -0.00  -0.00    -0.00   0.00   0.00     0.06   0.00   0.07
     6   1     0.35   0.00  -0.20    -0.35  -0.00   0.21    -0.11  -0.00   0.08
     7   1    -0.35  -0.00  -0.20     0.36   0.00   0.20    -0.60  -0.01  -0.34
     8   1     0.00   0.00   0.40    -0.00  -0.00  -0.41     0.01  -0.00  -0.55
                     16                     17                     18
                      A                      A                      A
 Frequencies --   3304.3142              3304.8396              3304.8971
 Red. masses --      1.1186                 1.1186                 1.1185
 Frc consts  --      7.1958                 7.1980                 7.1980
 IR Inten    --   1.241                  6.319                  6.433    
  Atom  AN      X      Y      Z        X      Y      Z        X      Y      Z
     1   6     0.07  -0.00  -0.06     0.06  -0.00   0.07     0.04  -0.00  -0.01
     2   1     0.01  -0.00   0.51     0.01   0.00  -0.53     0.01   0.00   0.08
     3   1    -0.62   0.00   0.35    -0.13   0.00   0.09    -0.30  -0.00   0.18
     4   1    -0.17   0.00  -0.11    -0.60   0.00  -0.34    -0.23   0.00  -0.14
     5   6    -0.04  -0.00   0.01     0.01   0.00   0.05     0.07   0.00  -0.06
     6   1     0.29   0.00  -0.17     0.12   0.00  -0.06    -0.62  -0.00   0.36
     7   1     0.22   0.00   0.13    -0.21  -0.00  -0.11    -0.21  -0.00  -0.14
     8   1    -0.01  -0.00  -0.08    -0.00  -0.00  -0.36     0.01   0.00   0.46

 -------------------
 - Thermochemistry -
 -------------------
 Temperature   298.150 Kelvin.  Pressure   1.00000 Atm.
 Atom     1 has atomic number  6 and mass  12.00000
 Atom     2 has atomic number  1 and mass   1.00783
 Atom     3 has atomic number  1 and mass   1.00783
 Atom     4 has atomic number  1 and mass   1.00783
 Atom     5 has atomic number  6 and mass  12.00000
 Atom     6 has atomic number  1 and mass   1.00783
 Atom     7 has atomic number  1 and mass   1.00783
 Atom     8 has atomic number  1 and mass   1.00783
 Molecular mass:    30.04695 amu.
 Principal axes and moments of inertia in atomic units:
                           1         2         3
     Eigenvalues --    25.10212 400.07975 400.08461
           X           -0.00410   0.19103   0.98158
           Y            0.99999  -0.00107   0.00438
           Z            0.00189   0.98158  -0.19102
 This molecule is an asymmetric top.
 Rotational symmetry number  1.
 Rotational temperatures (Kelvin)      3.45046     0.21649     0.21649
 Rotational constants (GHZ):          71.89597     4.51095     4.51090
    1 imaginary frequencies ignored.
 Zero-point vibrational energy     159451.7 (Joules/Mol)
                                   38.10986 (Kcal/Mol)
 Warning -- explicit consideration of   7 degrees of freedom as
           vibrations may cause significant error
 Vibrational temperatures:      9.81   156.40   176.36   186.01   204.54
          (Kelvin)            746.33   757.27  2026.79  2027.27  2029.13
                             2029.60  4493.50  4494.00  4754.10  4754.17
                             4754.92  4755.00
 
 Zero-point correction=                           0.060732 (Hartree/Particle)
 Thermal correction to Energy=                    0.067685
 Thermal correction to Enthalpy=                  0.068630
 Thermal correction to Gibbs Free Energy=         0.030060
 Sum of electronic and zero-point Energies=            -79.619503
 Sum of electronic and thermal Energies=               -79.612550
 Sum of electronic and thermal Enthalpies=             -79.611606
 Sum of electronic and thermal Free Energies=          -79.650176
 
                     E (Thermal)             CV                S
                      KCal/Mol        Cal/Mol-Kelvin    Cal/Mol-Kelvin
 Total                   42.473             18.466             81.177
 Electronic               0.000              0.000              0.000
 Translational            0.889              2.981             36.134
 Rotational               0.889              2.981             22.912
 Vibrational             40.696             12.505             22.131
 Vibration     1          0.593              1.987              8.771
 Vibration     2          0.606              1.942              3.292
 Vibration     3          0.610              1.930              3.059
 Vibration     4          0.612              1.924              2.957
 Vibration     5          0.616              1.911              2.775
 Vibration     6          0.874              1.209              0.613
 Vibration     7          0.881              1.192              0.595
                       Q            Log10(Q)             Ln(Q)
 Total Bot       0.149130D-13        -13.826434        -31.836540
 Total V=0       0.128309D+15         14.108257         32.485461
 Vib (Bot)       0.101522D-24        -24.993440        -57.549523
 Vib (Bot)    1  0.303824D+02          1.482621          3.413862
 Vib (Bot)    2  0.188466D+01          0.275234          0.633749
 Vib (Bot)    3  0.166615D+01          0.221713          0.510514
 Vib (Bot)    4  0.157714D+01          0.197870          0.455613
 Vib (Bot)    5  0.142948D+01          0.155179          0.357313
 Vib (Bot)    6  0.311536D+00         -0.506491         -1.166240
 Vib (Bot)    7  0.304896D+00         -0.515849         -1.187785
 Vib (V=0)       0.873474D+03          2.941250          6.772478
 Vib (V=0)    1  0.308865D+02          1.489768          3.430318
 Vib (V=0)    2  0.244986D+01          0.389141          0.896031
 Vib (V=0)    3  0.223955D+01          0.350161          0.806276
 Vib (V=0)    4  0.215450D+01          0.333346          0.767558
 Vib (V=0)    5  0.201440D+01          0.304147          0.700324
 Vib (V=0)    6  0.108911D+01          0.037073          0.085364
 Vib (V=0)    7  0.108563D+01          0.035681          0.082160
 Electronic      0.100000D+01          0.000000          0.000000
 Translational   0.647375D+07          6.811156         15.683266
 Rotational      0.226909D+05          4.355851         10.029717
 -------------------------------------------------------------------
 Center     Atomic                   Forces (Hartrees/Bohr)
 Number     Number              X              Y              Z
 -------------------------------------------------------------------
      1        6           0.000076642   -0.002043127   -0.000020526
      2        1          -0.000035730   -0.000003432    0.000020393
      3        1          -0.000027649    0.000000824   -0.000014822
      4        1          -0.000002917   -0.000008941    0.000009123
      5        6           0.000040629    0.002053251    0.000061666
      6        1          -0.000037980   -0.000001008   -0.000025195
      7        1          -0.000000002   -0.000004437   -0.000032580
      8        1          -0.000012994    0.000006871    0.000001943
 -------------------------------------------------------------------
 Cartesian Forces:  Max     0.002053251 RMS     0.000591897
 -----------------------------------------------------------------------------------------------
                       Internal Coordinate Forces (Hartree/Bohr or radian)
  Cent   Atom   N1       Length/X         N2         Alpha/Y        N3         Beta/Z          J
 -----------------------------------------------------------------------------------------------
      1  C 
      2  H        1   0.000020(     1)
      3  H        1  -0.000017(     2)      2   0.000054(     8)
      4  H        1  -0.000002(     3)      2  -0.000019(     9)      3  -0.000016(    14)     0
      5  C        1  -0.002055(     4)      2   0.000003(    10)      3   0.000021(    15)     0
      6  H        5   0.000020(     5)      1   0.000004(    11)      2  -0.000001(    16)     0
      7  H        5  -0.000016(     6)      6   0.000058(    12)      1   0.000020(    17)     0
      8  H        5  -0.000002(     7)      6  -0.000026(    13)      7   0.000012(    18)     0
 -----------------------------------------------------------------------------------------------
 Internal  Forces:  Max     0.002054709 RMS     0.000484872

 GradGradGradGradGradGradGradGradGradGradGradGradGradGradGradGradGradGrad
 Berny optimization.
 Search for a local minimum.
 Step number   1 out of a maximum of    2
 All quantities printed in internal units (Hartrees-Bohrs-Radians)
 Second derivative matrix not updated -- analytic derivatives used.
 The second derivative matrix:
                          R1        R2        R3        A2        A3
           R1           0.37194
           R2           0.00005   0.37194
           R3           0.00004   0.00005   0.37203
           A2           0.01586   0.00009  -0.01589   0.18901
           A3           0.01585  -0.01589   0.00008   0.09449   0.18893
           D3           0.00018   0.00008  -0.00017   0.00080   0.00059
           R21          0.00004  -0.00003   0.00003  -0.00000   0.00001
           R22          0.00004   0.00004  -0.00003   0.00001   0.00000
           R23         -0.00003   0.00003   0.00003  -0.00001  -0.00001
           A22          0.00001  -0.00001  -0.00000  -0.00012  -0.00022
           A23          0.00000  -0.00001   0.00001   0.00012  -0.00012
           D23          0.00004  -0.00011  -0.00010   0.00010   0.00010
           ANG2         0.00009  -0.00017   0.00009  -0.00000   0.00016
           DH3          0.00015   0.00000  -0.00015   0.00020   0.00010
           DH2         -0.00000   0.00000  -0.00000   0.00002  -0.00002
           DH1         -0.00001  -0.00025   0.00022  -0.00022   0.00022
           ANG1        -0.00028   0.00014   0.00013  -0.00039  -0.00038
           BB          -0.00005  -0.00005  -0.00005   0.00000   0.00000
                          D3        R21       R22       R23       A22
           D3           0.00976
           R21          0.00011   0.37207
           R22         -0.00004   0.00005   0.37192
           R23          0.00011   0.00004   0.00004   0.37192
           A22         -0.00000   0.01589  -0.00006  -0.01584   0.18896
           A23          0.00009   0.01578  -0.01579   0.00001   0.09446
           D23          0.00005  -0.00018  -0.00009   0.00013  -0.00075
           ANG2        -0.00010  -0.00029   0.00017   0.00013  -0.00041
           DH3          0.00015   0.00002  -0.00027   0.00021  -0.00021
           DH2          0.00000  -0.00018   0.00018  -0.00000   0.00008
           DH1         -0.00127  -0.00013   0.00012  -0.00001  -0.00005
           ANG1        -0.00079   0.00010   0.00008  -0.00020   0.00020
           BB           0.00038  -0.00005  -0.00004  -0.00005  -0.00001
                          A23       D23      ANG2       DH3       DH2
           A23          0.18890
           D23         -0.00050   0.01055
           ANG2        -0.00037   0.00137   0.00340
           DH3          0.00025   0.00250   0.00045   0.00430
           DH2          0.00001   0.00000  -0.00004   0.00001  -0.00002
           DH1         -0.00019   0.00005  -0.00019   0.00030   0.00001
           ANG1         0.00002   0.00112   0.00063   0.00129  -0.00001
           BB          -0.00000  -0.00040  -0.00001  -0.00005   0.00000
                          DH1      ANG1       BB
           DH1          0.00460
           ANG1         0.00011   0.00571
           BB          -0.00009   0.00004  -0.00215
 ITU=  0
     Eigenvalues ---   -0.00002   0.00294   0.00313   0.00443   0.00556
     Eigenvalues ---    0.01017   0.01208   0.09350   0.09364   0.27546
     Eigenvalues ---    0.27578   0.37201   0.37210   0.37276   0.37287
     Eigenvalues ---    0.37972   0.379791000.00000
 Eigenvalue     1 is  -2.29D-05 should be greater than     0.000000 Eigenvector:
                          DH2      ANG2       DH3       DH1      ANG1
   1                    0.99993   0.01118  -0.00318  -0.00261   0.00227
                          D23       A22       R21       R22       A2
   1                   -0.00137  -0.00054   0.00051  -0.00048  -0.00017
 Angle between quadratic step and forces=  85.00 degrees.
 Linear search not attempted -- first point.
 Variable       Old X    -DE/DX   Delta X   Delta X   Delta X     New X
                                 (Linear)    (Quad)   (Total)
    R1        2.03744   0.00002   0.00000   0.00005   0.00005   2.03749
    R2        2.03756  -0.00002   0.00000  -0.00006  -0.00006   2.03750
    R3        2.03749  -0.00000   0.00000   0.00001   0.00001   2.03750
    A2        2.09400   0.00005   0.00000   0.00047   0.00047   2.09447
    A3        2.09481  -0.00002   0.00000  -0.00035  -0.00035   2.09446
    D3        3.14888  -0.00002   0.00000  -0.00123  -0.00123   3.14765
   R21        2.03745   0.00002   0.00000   0.00003   0.00003   2.03748
   R22        2.03756  -0.00002   0.00000  -0.00004  -0.00004   2.03752
   R23        2.03747  -0.00000   0.00000   0.00001   0.00001   2.03749
   A22        2.09373   0.00006   0.00000   0.00053   0.00053   2.09426
   A23        2.09487  -0.00003   0.00000  -0.00041  -0.00041   2.09446
   D23        3.13490   0.00001   0.00000   0.00012   0.00012   3.13501
   ANG2       1.57200   0.00000   0.00000   0.00049   0.00049   1.57248
   DH3        1.56403   0.00002   0.00000   0.00467   0.00467   1.56870
   DH2        1.03967  -0.00000   0.00000  -0.03414  -0.03414   1.00553
   DH1        1.56675   0.00002   0.00000   0.00419   0.00419   1.57094
   ANG1       1.57255   0.00000   0.00000  -0.00091  -0.00091   1.57164
    BB        7.18096  -0.00205   0.00000   0.00000   0.00000   7.18096
         Item               Value     Threshold  Converged?
 Maximum Force            0.000058     0.000450     YES
 RMS     Force            0.000024     0.000300     YES
 Maximum Displacement     0.034145     0.001800     NO 
 RMS     Displacement     0.008194     0.001200     NO 
 Predicted change in Energy=-1.779857D-07
 GradGradGradGradGradGradGradGradGradGradGradGradGradGradGradGradGradGrad


 Test job not archived.
 1\1\GINC-NODE-6-10\Freq\UwB97XD\Aug-CC-pVTZ\C2H6\CAVALLOTTI\27-May-202
 3\1\\#N Geom=AllCheck Guess=TCheck SCRF=Check Test GenChk UwB97XD/Aug-
 CC-pVTZ Freq\\geom 0\\0,1\C\H,1,R1\H,1,R2,2,A2\H,1,R3,2,A3,3,D3,0\C,1,
 BB,2,ANG1,3,DH1,0\H,5,R21,1,ANG2,2,DH2,0\H,5,R22,6,A22,1,DH3,0\H,5,R23
 ,6,A23,7,D23,0\\R1=1.07816629\R2=1.07822943\R3=1.07819383\A2=119.97724
 32\A3=120.02361946\D3=180.41744785\R21=1.07817222\R22=1.07823154\R23=1
 .07818505\A22=119.96184627\A23=120.02708681\D23=179.61634102\ANG2=90.0
 6870392\DH3=89.61259696\DH2=59.56892016\DH1=89.76800325\ANG1=90.100728
 52\BB=3.8\\Version=EM64L-G09RevD.01\HF=-79.6802354\S2=0.982501\S2-1=0.
 \S2A=0.059283\RMSD=6.030e-10\RMSF=5.919e-04\ZeroPoint=0.0607319\Therma
 l=0.0676853\Dipole=0.0000125,0.000159,0.0000298\DipoleDeriv=0.0147686,
 -0.0019128,0.000026,-0.0017403,-0.4477657,-0.0010514,0.0000351,-0.0011
 616,0.0153234,0.0422298,0.0003571,-0.0000845,0.0004247,0.1502064,0.000
 9454,0.0000121,0.0048553,-0.0522448,-0.0286893,0.004383,0.0405249,0.00
 09502,0.148756,-0.0001015,0.0402298,-0.0020959,0.018432,-0.02831,-0.00
 26304,-0.0404759,0.0004135,0.1494886,0.0002542,-0.0402921,-0.0014437,0
 .01852,0.0147053,0.0041591,-0.0000277,0.0039652,-0.4484615,0.0034421,-
 0.0000196,0.0036136,0.0153399,-0.027871,0.0024422,0.0407875,-0.0008333
 ,0.1491818,-0.0008675,0.0407327,-0.0026294,0.0177675,-0.0291909,-0.005
 9009,-0.0401628,-0.0022234,0.1483452,-0.0015983,-0.0400318,-0.0035604,
 0.0189106,0.0423576,-0.0008972,-0.0005876,-0.0009565,0.1502492,-0.0010
 229,-0.0006662,0.0024221,-0.0520487\Polar=31.3076729,-0.0413209,41.192
 1707,0.0007318,0.0265151,31.3010955\PG=C01 [X(C2H6)]\NImag=1\\0.620363
 24,-0.00215409,0.02189857,0.00015975,-0.00124121,0.62040629,-0.0548079
 9,0.00016708,-0.00000176,0.04551203,0.00016101,-0.00833695,0.00003031,
 -0.00015427,0.00332432,0.00001030,-0.00013351,-0.35848440,-0.00002349,
 -0.00009400,0.37193902,-0.28262462,-0.00002524,0.13146993,0.00466248,0
 .00012602,-0.00384916,0.29040319,0.00012094,-0.00816147,0.00012268,0.0
 0006925,0.00260122,0.00010335,-0.00016276,0.00313843,0.13149405,0.0002
 1442,-0.13061951,0.02359849,0.00001153,-0.00676579,-0.14130147,-0.0000
 8771,0.12707329,-0.28247441,0.00201244,-0.13162932,0.00467656,-0.00013
 342,0.00386177,-0.01247797,0.00008791,-0.01374402,0.29023942,0.0018694
 1,-0.00815769,0.00109817,-0.00008176,0.00259696,0.00007475,0.00002028,
 0.00262897,-0.00011549,-0.00192129,0.00314579,-0.13166513,0.00117586,-
 0.13084559,-0.02357236,0.00018190,-0.00675265,0.01372675,-0.00020751,0
 .01032977,0.14146590,-0.00112546,0.12728568,-0.00054236,-0.00000364,-0
 .00000212,0.00004919,-0.00000245,-0.00000172,0.00001770,-0.00015353,0.
 00001921,0.00001805,0.00014619,-0.00001613,0.62018375,-0.00000526,0.00
 342556,-0.00002106,-0.00000049,-0.00019516,0.00015312,0.00013010,-0.00
 023207,-0.00007356,-0.00012476,-0.00021904,-0.00006955,0.00507797,0.02
 197350,0.00000205,-0.00001932,-0.00054443,-0.00000216,-0.00017070,0.00
 000956,0.00001465,0.00008556,0.00003972,-0.00001560,0.00008613,0.00004
 022,-0.00015744,0.00437298,0.62052571,0.00002006,0.00012807,0.00001723
 ,-0.00001880,-0.00006639,-0.00003306,0.00000782,0.00002228,-0.00003592
 ,0.00002809,-0.00004042,0.00000380,-0.28062416,-0.00205937,0.13270590,
 0.28827467,-0.00014673,-0.00021900,0.00009313,-0.00002649,0.00002109,-
 0.00006569,0.00001905,-0.00002896,-0.00001180,0.00003918,0.00001944,0.
 00005218,-0.00188076,-0.00814690,0.00056087,0.00192224,0.00312225,0.00
 001706,-0.00007081,0.00003822,-0.00002135,0.00000612,0.00001273,-0.000
 03512,-0.00001188,-0.00003306,-0.00000540,0.00005351,-0.00003528,0.132
 75114,0.00064395,-0.13273779,-0.14261538,-0.00062084,0.12931585,0.0000
 1798,-0.00012677,-0.00001639,-0.00002002,0.00006880,0.00003486,0.00003
 043,0.00004302,-0.00000737,0.00000890,-0.00001750,0.00003551,-0.284278
 80,-0.00260788,-0.13044189,-0.01249976,-0.00023476,-0.01357906,0.29220
 556,0.00015308,-0.00022311,0.00009240,0.00002763,0.00002699,-0.0000622
 2,-0.00003987,0.00003157,0.00005545,-0.00002474,-0.00003102,-0.0000138
 6,-0.00277452,-0.00822605,-0.00169438,-0.00001835,0.00262997,-0.000201
 14,0.00295728,0.00320928,-0.00001991,-0.00006803,0.00003819,0.00002286
 ,0.00000630,0.00001178,0.00000674,0.00005576,-0.00003562,0.00003537,-0
 .00000947,-0.00003347,-0.13048877,-0.00160962,-0.12890042,0.01390232,0
 .00002679,0.01033258,0.14019759,0.00179484,0.12520054,0.00004811,0.000
 00215,0.00000267,-0.00005345,0.00000069,0.00000050,-0.00001904,-0.0000
 2711,-0.00002297,-0.00001864,0.00002509,0.00002165,-0.05482337,-0.0004
 1031,-0.00210550,0.00481207,0.00030826,0.02348811,0.00453569,-0.000280
 51,-0.02365620,0.04551862,0.00000164,-0.00022591,-0.00017443,-0.000000
 94,-0.00003847,0.00002421,-0.00006758,0.00002231,0.00000716,0.00006468
 ,0.00001659,0.00000643,-0.00040926,-0.00837983,-0.00322112,0.00011193,
 0.00260211,0.00020108,-0.00008219,0.00258237,-0.00019656,0.00038173,0.
 00342082,0.00000183,0.00014260,0.00001124,-0.00000023,0.00002853,0.000
 02976,-0.00003232,-0.00006025,0.00001120,0.00003129,-0.00006213,0.0000
 1132,-0.00210416,-0.00339627,-0.35843257,-0.00394489,-0.00003462,-0.00
 689324,0.00377675,0.00002891,-0.00661359,0.00227174,0.00335323,0.37187
 588\\-0.00007664,0.00204313,0.00002053,0.00003573,0.00000343,-0.000020
 39,0.00002765,-0.00000082,0.00001482,0.00000292,0.00000894,-0.00000912
 ,-0.00004063,-0.00205325,-0.00006167,0.00003798,0.00000101,0.00002519,
 0.,0.00000444,0.00003258,0.00001299,-0.00000687,-0.00000194\\\@


 It takes a long time to grow an old friend.
                            -- John Leonard
 Job cpu time:       0 days  0 hours 45 minutes 21.8 seconds.
 File lengths (MBytes):  RWF=    106 Int=      0 D2E=      0 Chk=      7 Scr=      1
 Normal termination of Gaussian 09 at Sat May 27 09:06:30 2023.
