
 Working directory              : /scratch/cc/139147/molpro.9q8Cu2NXaX/
 Global scratch directory       : /scratch/cc/139147/molpro.9q8Cu2NXaX/
 Wavefunction directory         : /home/chimica2/cavallotti/wfu/
 Main file repository           : /scratch/cc/139147/molpro.9q8Cu2NXaX/

 id        : polimi

 Nodes     nprocs
 node-6-11    4
 GA implementation: MPI file
 GA implementation (serial work in mppx): MPI file

 Using customized tuning parameters: mindgm=1; mindgv=20; mindgc=4; mindgr=1; noblas=0; minvec=7
 default implementation of scratch files=sf  


 Variables initialized (1015), CPU time= 0.00 sec
  memory,         400 ,m
   nosym
  geometry={angstrom
    C1
    H2   C1   R1
    H3   C1   R2   H2   A2
    H4   C1   R3   H2   A3   H3   D3
    C21 C1 BB H2 ANG1 H3 DH1
    H22 C21 R21 C1 ANG2 H2 DH2
    H23 C21 R22 H22 A22 C1 DH3
    H24 C21 R23 H22 A23 H23 D23
  }
  R1                             =    1.0802000000000000
  R2                             =    1.0804000000000000
  R3                             =    1.0804000000000000
  A2                             =    115.92630000000000
  A3                             =    115.93650000000000
  D3                             =    219.26509999999999
  R21                            =    1.0802000000000000
  R22                            =    1.0804000000000000
  R23                            =    1.0804000000000000
  A22                            =    115.92919999999999
  A23                            =    115.93660000000000
  D23                            =    140.73910000000001
  ANG2                           =    101.85010000000000
  DH3                            =    109.60429999999999
  DH2                            =    60.015799999999999
  DH1                            =    109.63260000000000
  ANG1                           =    101.84470000000000
  BB                             =    2.3999999999999999
 
   basis=cc-pvdz
   {multi;closed, 8;occ,10;wf, 18,1,0,;state,1;maxiter,40}
   {RS2,SHIFT=0.2;ORBITAL,IGNORE_ERROR;STATE,1}
   CBSen = energy
  put,molden,molpro.molden
 Commands initialized (834), CPU time= 0.01 sec, 672 directives.
 Default parameters read. Elapsed time= 0.13 sec

 Checking input...
 Passed
1


                                         ***  PROGRAM SYSTEM MOLPRO  ***
                                       Copyright, TTI GmbH Stuttgart, 2015
                                    Version 2022.2 linked Thu Sep 29 12:37:28 2022


 **********************************************************************************************************************************
 LABEL *                                                                                 
  64 bit mpp version                                                                     DATE: 27-May-23          TIME: 09:25:41  
 **********************************************************************************************************************************

 SHA1:             51306cdc306ce2a111a2867affebcb289530e0a7
 **********************************************************************************************************************************

 Memory per process:       400 MW
 Total memory per node:   1600 MW

 GA preallocation disabled
 GA check disabled

 Variable memory set to 400.0 MW

 ZSYMEL=NOSYM

 SETTING R1             =         1.08020000                                  
 SETTING R2             =         1.08040000                                  
 SETTING R3             =         1.08040000                                  
 SETTING A2             =       115.92630000                                  
 SETTING A3             =       115.93650000                                  
 SETTING D3             =       219.26510000                                  
 SETTING R21            =         1.08020000                                  
 SETTING R22            =         1.08040000                                  
 SETTING R23            =         1.08040000                                  
 SETTING A22            =       115.92920000                                  
 SETTING A23            =       115.93660000                                  
 SETTING D23            =       140.73910000                                  
 SETTING ANG2           =       101.85010000                                  
 SETTING DH3            =       109.60430000                                  
 SETTING DH2            =        60.01580000                                  
 SETTING DH1            =       109.63260000                                  
 SETTING ANG1           =       101.84470000                                  
 SETTING BB             =         2.40000000                                  
 SETTING BASIS          =    CC-PVDZ


 Recomputing integrals since basis changed


 Using spherical harmonics

 Library entry C      S cc-pVDZ              selected for orbital group  1
 Library entry C      P cc-pVDZ              selected for orbital group  1
 Library entry C      D cc-pVDZ              selected for orbital group  1
 Library entry H      S cc-pVDZ              selected for orbital group  2
 Library entry H      P cc-pVDZ              selected for orbital group  2


 PROGRAM * SEWARD (Integral evaluation for generally contracted gaussian basis sets)     Author: Roland Lindh, 1990

 Geometry written to block  1 of record 700

 Orientation using atomic masses  
 Molecule type: Asymmetric top
 Rotational constants:      10.0660807     10.0667291     74.7644741 GHz  (calculated with average atomic masses)

 Point group  C1  



 ATOMIC COORDINATES

 NR  ATOM    CHARGE       X              Y              Z

   1  C1      6.00    0.000114942    0.000177310   -2.267665995
   2  H2      1.00    0.957437283    1.753707193   -2.686592883
   3  H3      1.00    1.038808297   -1.706474957   -2.688177754
   4  H4      1.00   -1.997140016   -0.049425908   -2.688246712
   5  C21     6.00   -0.000176983    0.000165966    2.267676695
   6  H22     1.00   -1.040606581    1.705650886    2.686795172
   7  H23     1.00    1.997320112    0.047077791    2.687415449
   8  H24     1.00   -0.955079790   -1.754625611    2.688679228

 Bond lengths in Bohr (Angstrom)

 1-2  2.041282160  1-3  2.041660105  1-4  2.041660105  5-6  2.041282160  5-7  2.041660105
     ( 1.080200000)     ( 1.080400000)     ( 1.080400000)     ( 1.080200000)     ( 1.080400000)

 5-8  2.041660105
     ( 1.080400000)

 Bond angles

  2-1-3  115.92630000   2-1-4  115.93650000   3-1-4  115.78189465   6-5-7  115.92920000

  6-5-8  115.93660000   7-5-8  115.78195731

 NUCLEAR CHARGE:                   18
 NUMBER OF PRIMITIVE AOS:          96
 NUMBER OF SYMMETRY AOS:           94
 NUMBER OF CONTRACTIONS:           58   (   58A   )
 NUMBER OF INNER CORE ORBITALS:     0   (    0A   )
 NUMBER OF OUTER CORE ORBITALS:     2   (    2A   )
 NUMBER OF VALENCE ORBITALS:       14   (   14A   )


 NUCLEAR REPULSION ENERGY   35.53745231

 Eigenvalues of metric

         1 0.110E-01 0.156E-01 0.357E-01 0.357E-01 0.360E-01 0.360E-01 0.428E-01 0.449E-01


 Contracted 2-electron integrals neglected if value below      1.0D-11
 AO integral compression algorithm  1   Integral accuracy      1.0D-11

     7.864 MB (compressed) written to integral file ( 56.4%)

     Node minimum: 1.835 MB, node maximum: 2.097 MB


 NUMBER OF SORTED TWO-ELECTRON INTEGRALS:     365512.     BUFFER LENGTH:  32768
 NUMBER OF SEGMENTS:   1  SEGMENT LENGTH:     365512      RECORD LENGTH: 524288

 Memory used in sort:       0.92 MW

 SORT1 READ     1712091. AND WROTE      357679. INTEGRALS IN      2 RECORDS. CPU TIME:     0.02 SEC, REAL TIME:     0.05 SEC
 SORT2 READ     1430481. AND WROTE     1464616. INTEGRALS IN     32 RECORDS. CPU TIME:     0.02 SEC, REAL TIME:     0.03 SEC

 Node minimum:      365512.  Node maximum:      366796. integrals

 OPERATOR DM      FOR CENTER  0  COORDINATES:    0.000000    0.000000    0.000000


 **********************************************************************************************************************************
 DATASETS  * FILE   NREC   LENGTH (MB)   RECORD NAMES
              1      18       28.78       500      610      700      900      950      970     1000      129      960     1100   
                                          VAR    BASINP    GEOM    SYMINP    ZMAT    AOBASIS   BASIS     P2S    ABASIS      S 
                                         1400     1410     1200     1210     1080     1600     1650     1700   
                                           T        V       H0       H01     AOSYM     SMH    MOLCAS    OPER   

 PROGRAMS   *        TOTAL       INT
 CPU TIMES  *         0.45      0.31
 REAL TIME  *         0.89 SEC
 DISK USED  *        29.15 MB (local),      154.56 MB (total)
 GA USED    *         0.00 MB       (max)       0.00 MB       (current)
 **********************************************************************************************************************************

 PROGRAM * MULTI (Direct Multiconfiguration SCF)       Authors: P.J. Knowles, H.-J. Werner (1984)
                                                                D.A. Kreplin, P.J. Knowles, H.-J. Werner (2019)

 Number of closed-shell orbitals:   8 (    8)
 Number of active  orbitals:        2 (    2)
 Number of external orbitals:      48 (   48)

 State symmetry 1

 Number of active electrons:   2    Spin symmetry=Singlet   Space symmetry=1
 Number of states:             1
 Number of CSFs:               3   (4 determinants, 4 intermediate states)

 Orbital guess generated from atomic densities. Full valence occupancy:   16

 Wavefunction dump at record             2140.2

 Convergence thresholds  0.10E-04 (gradient)  0.10E-05 (energy)
 
 Number of orbital rotations:  496  ( 16 closed/active, 384 closed/virtual, 0 active/active, 96 active/virtual )
 Total number of variables:    500
 
 Second-order MCSCF: L-BFGS accelerated
 
 ITER  MIC  NCI  NEG     ENERGY(VAR)    ENERGY(PROJ) ENERGY CHANGE       GRAD(0)  GRAD(ORB)   GRAD(CI)      STEP      TIME
   1    6    5    0    -79.13862209     -79.16203089   -0.02340880    0.19623834 0.00006196 0.00000000  0.18E+00      0.32
   2    8    7    0    -79.16208837     -79.16210278   -0.00001441    0.00536761 0.00000245 0.00000000  0.49E-02      0.80
   3    5    4    0    -79.16210279     -79.16210279   -0.00000000    0.00000659 0.00000000 0.00000000  0.86E-05      1.07

 CONVERGENCE REACHED!  Final gradient:    0.00000000 ( 0.30E-10)
                       Final energy:    -79.16210279
 
 First order charge density matrix for state 1.1 saved on record 2140.2 (density set 1)
 
 Results for state 1.1
 =====================
 !MCSCF STATE 1.1 Energy                       -79.162102792161
 Nuclear energy                                 35.53745231
 Kinetic energy                                 78.82356516
 One electron energy                          -175.61459843
 Two electron energy                            60.91504333
 Virial ratio                                    2.00429488
 
 !MCSCF STATE 1.1 Dipole moment                  0.00007816    -0.00005251     0.00000158
 Dipole moment /Debye                            0.00019867    -0.00013347     0.00000401
 
 No non-zero expectation values
 
 
 Natural orbital dump at molpro section 2140.2 (Orbital set 2)


 **********************************************************************************************************************************
 DATASETS  * FILE   NREC   LENGTH (MB)   RECORD NAMES
              1      19       30.97       500      610      700      900      950      970     1000      129      960     1100   
                                          VAR    BASINP    GEOM    SYMINP    ZMAT    AOBASIS   BASIS     P2S    ABASIS      S 
                                         1400     1410     1200     1210     1080     1600     1650     1700     1380   
                                           T        V       H0       H01     AOSYM     SMH    MOLCAS    OPER     JKOP   

              2       4        0.54       700     1000      520     2140   
                                         GEOM     BASIS   MCVARS    MCSCF   

 PROGRAMS   *        TOTAL     MULTI       INT
 CPU TIMES  *         0.96      0.51      0.31
 REAL TIME  *         2.10 SEC
 DISK USED  *        31.56 MB (local),      164.20 MB (total)
 SF USED    *         7.24 MB
 GA USED    *         0.00 MB       (max)       0.00 MB       (current)
 **********************************************************************************************************************************


 PROGRAM * RS2 (Multireference RS Perturbation Theory)     Authors: H.-J. Werner (1993), P. Celani (1998)


 Level shift= 0.20

 Convergence thresholds:  THRVAR = 1.00D-08  THRDEN = 1.00D-06

 Number of optimized states: 1  Roots:    1
 Number of reference states: 1  Roots:    1

 Reference symmetry:                   1   Singlet 
 Number of electrons:                 18
 Maximum number of shells:             4
 Maximum number of spin couplings:     5

 Reference space:        3 conf        3 CSFs
 N elec internal:       36 conf       36 CSFs
 N-1 el internal:       62 conf       98 CSFs
 N-2 el internal:       76 conf      184 CSFs

 Number of electrons in valence space:                     14
 Maximum number of open shell orbitals in reference space:  2
 Maximum number of open shell orbitals in internal spaces:  6


 Number of core orbitals:           2 (   2 )
 Number of closed-shell orbitals:   6 (   6 )
 Number of active  orbitals:        2 (   2 )
 Number of external orbitals:      48 (  48 )

 Molecular orbitals read from record     2140.2  Type=MCSCF/NATURAL (state 1.1)

 Integral transformation finished. Total CPU:   0.02 sec, npass=  1  Memory used:   0.33 MW


 Number of p-space configurations:   3

 Reference wavefunction optimized for reference space (refopt=1)

 State     Reference Energy 
     1       -79.16210279

 Number of blocks in overlap matrix:     2   Smallest eigenvalue:  0.10D+01
 Number of N-2 electron functions:      61
 Number of N-1 electron functions:      98

 Number of internal configurations:                   36
 Number of singly external configurations:          4704
 Number of doubly external configurations:         70440
 Total number of contracted configurations:        75180
 Total number of uncontracted configurations:     216660

 Weight factors for SA-density in H0:    1.000000

 FIMAX=  0.66D-01  FXMAX=  0.47D-13  DIAG=  F  T  NOREF=1  NOINT=0  IHPPD=2

 Nuclear energy:                      35.53745231
 Core energy:                        -77.25090448
 Zeroth-order valence energy:         -8.55117767
 Zeroth-order total energy:          -50.26462985
 First-order energy:                 -28.89747295

 Using uncontracted singles

 Diagonal Coupling coefficients finished.               Storage:    3121 words, CPU-Time:      0.00 seconds.
 Energy denominators for pairs finished in 0 passes.    Storage:    7322 words, CPU-time:      0.00 seconds.

 A level shift of 0.20 is applied.

  ITER. STATE  ROOT     SQ.NORM     CORR.ENERGY   TOTAL ENERGY   ENERGY CHANGE       DEN1      VAR(S)    VAR(P)      TIME
    1     1     1     1.01484022    -0.00296804   -79.16507084    -0.00296804    -0.25706672  0.15D-01  0.70D-01     0.05
    2     1     1     1.08472973    -0.27416407   -79.43626686    -0.27119603     0.00020231  0.51D-04  0.54D-04     0.06
    3     1     1     1.08466280    -0.27438459   -79.43648739    -0.00022052    -0.00017799  0.81D-06  0.21D-06     0.07
    4     1     1     1.08469581    -0.27439311   -79.43649590    -0.00000852     0.00000312  0.73D-08  0.40D-08     0.08
    5     1     1     1.08469570    -0.27439311   -79.43649590     0.00000000    -0.00000154  0.11D-09  0.45D-10     0.08

 Energies without level shift correction:

    5     1     1     1.08469570    -0.25745397   -79.41955676

 Energy contributions for state 1.1:
 ===================================

            Energy contr.      SQ.Norm of FOWF
 Space I     -0.00081506          0.00044218
 Space S     -0.03170865          0.01464285
 Space P     -0.22493026          0.06961067


 =====================================
 Analysis of CPU times by interactions
 =====================================

       I      S      P

 I   0.0%
 S   0.0%   0.0%
 P   0.0%   0.0%  25.0%

 Initialization:  50.0%
 Other:           25.0%

 Total CPU:        0.1 seconds
 =====================================



 Reference coefficients greater than 0.0500000
 =============================================
 22222220           0.9496011
 22222202          -0.3134610


 RESULTS FOR STATE 1.1
 =====================

 Coefficient of reference function:   C(0) = 1.00000000 (fixed)   1.00000000 (relaxed)

 Energy contributions of configuration classes

 CLASS          SQ.NORM        ECORR1        ECORR2
 +++++++++++++++++++++++++++++++++++++++++++++++++++
 Internals    0.00044218   -0.00081504    0.27265577
 Singles      0.01464285   -0.03170866   -0.06758984
 Pairs        0.06961067   -0.22493028   -0.47945904
 Total        1.08469570   -0.25745398   -0.27439311
 +++++++++++++++++++++++++++++++++++++++++++++++++++


 Reference energy                     -79.16210279
 Nuclear energy                        35.53745231
 Kinetic energy                        79.00148515
 One electron energy                 -175.49258440
 Two electron energy                   60.51863619
 Virial quotient                       -1.00550636
 Correlation energy                    -0.27439311
 !RSPT2 STATE 1.1 Energy              -79.436495899831

 Properties without orbital relaxation:

 !RSPT2 STATE 1.1 Dipole moment         0.00008018    -0.00006554     0.00000137
 Dipole moment /Debye                   0.00020379    -0.00016658     0.00000347


 **********************************************************************************************************************************
 DATASETS  * FILE   NREC   LENGTH (MB)   RECORD NAMES
              1      19       30.97       500      610      700      900      950      970     1000      129      960     1100   
                                          VAR    BASINP    GEOM    SYMINP    ZMAT    AOBASIS   BASIS     P2S    ABASIS      S 
                                         1400     1410     1200     1210     1080     1600     1650     1700     1380   
                                           T        V       H0       H01     AOSYM     SMH    MOLCAS    OPER     JKOP   

              2       4        0.54       700     1000      520     2140   
                                         GEOM     BASIS   MCVARS    MCSCF   

 PROGRAMS   *        TOTAL       RS2     MULTI       INT
 CPU TIMES  *         1.10      0.14      0.51      0.31
 REAL TIME  *         2.55 SEC
 DISK USED  *        31.56 MB (local),      164.20 MB (total)
 SF USED    *         8.77 MB
 GA USED    *         0.00 MB       (max)       0.00 MB       (current)
 **********************************************************************************************************************************
 SETTING CBSEN          =       -79.43649590  AU                              

 Dump information in style MOLDEN to molpro.molden                                                                   

 Molecular orbitals read from record     2140.2  Type=MCSCF/NATURAL (state 1.1)
 Occupation numbers read from record     2140.2  Type=MCSCF/NATURAL (state 1.1)
 Orbital energies read from record       2140.2  Type=MCSCF/NATURAL (state 1.1)
 Redundancy group numbers read from rec  2140.2  Type=MCSCF/NATURAL (state 1.1)

 DUMP ORBITAL  1.1 AS ORBITAL    1  occ=    2.0000  eig=  -11.2367  GROUP=   2
 DUMP ORBITAL  2.1 AS ORBITAL    2  occ=    2.0000  eig=  -11.2367  GROUP=   2
 DUMP ORBITAL  3.1 AS ORBITAL    3  occ=    2.0000  eig=   -0.9125  GROUP=   2
 DUMP ORBITAL  4.1 AS ORBITAL    4  occ=    2.0000  eig=   -0.8792  GROUP=   2
 DUMP ORBITAL  5.1 AS ORBITAL    5  occ=    2.0000  eig=   -0.5693  GROUP=   2
 DUMP ORBITAL  6.1 AS ORBITAL    6  occ=    2.0000  eig=   -0.5691  GROUP=   2
 DUMP ORBITAL  7.1 AS ORBITAL    7  occ=    2.0000  eig=   -0.5466  GROUP=   2
 DUMP ORBITAL  8.1 AS ORBITAL    8  occ=    2.0000  eig=   -0.5464  GROUP=   2
 DUMP ORBITAL  9.1 AS ORBITAL    9  occ=    1.8035  eig=   -0.2950  GROUP=   3
 DUMP ORBITAL 10.1 AS ORBITAL   10  occ=    0.1965  eig=    0.1374  GROUP=   3

 Total charge:      18.000000

 **********************************************************************************************************************************

 RS2/cc-pVDZ energy=    -79.436495899831

             RS2           MULTI
    -79.43649590    -79.16210279
 **********************************************************************************************************************************
 Molpro calculation terminated
