[Molden Format]
[Molpro variables]
_NUMVAR=  1056.000000000000    
_AVOGAD= 0.6022140760000000E+24
_BOLTZ= 0.1380649000000000E-22
_CLIGHTSI=  299792458.0000000    
_JOULE= 0.4359744722207100E-17
_JPCAL=  4.184000000000000    
_PLANCK= 0.6626070150000000E-33
_BOHR= 0.5291772109030000E-10
_ECHARG= 0.1602176634000000E-18
_ENULL= 0.8854187812800001E-11
_MU= 0.1660539066600000E-26
_EMASS= 0.9109383701500001E-30
_AMU2AU=  1822.888486217313    
_CLIGHT=  29979245800.00000    
_EV= 0.3674932217565494E-01
_KJOULE= 0.3808798847133432E-03
_KJOULE/MOL= 0.3808798847133432E-03
_CM= 0.4556335252912009E-05
_CM-1= 0.4556335252912009E-05
_DEB2SI= 0.3335640951981520E-29
_KCAL= 0.1593601437640628E-02
_KCAL/MOL= 0.1593601437640628E-02
_KELVIN= 0.3166811563455608E-05
_HERTZ= 0.1519829846057038E-15
_HZ= 0.1519829846057038E-15
_TOA= 0.5291772109030000    
_TOANG= 0.5291772109030000    
_TORAD= 0.1745329251994330E-01
_TOCM=  219474.6313631965    
_TODEBYE=  2.541746473194078    
_TOE= 0.4803204712570263E-09
_TOEV=  27.21138624598803    
_TOHERTZ=  6579683920501656.    
_TOHZ=  6579683920501656.    
_TOK=  315775.0248040668    
_TOKCAL=  627.5094740630558    
_TOKELVIN=  315775.0248040668    
_TOKJ=  2625.499639479825    
_TOKJOULE=  2625.499639479825    
_TOKG= 0.1660539066600000E-26
_ANG=  1.889726124625770    
_ANGSTROM=  1.889726124625770    
_RPAREF=  0.000000000000000    
_RPADISS=  0.000000000000000    
_IGNORE_UNDEF=  2.000000000000000    
_STRICTCHECK=  0.000000000000000    
!SEWARD=  0.000000000000000    
!MULTI=  0.000000000000000    
!DFMULTI=  0.000000000000000    
_SEW_ONEEL=  0.000000000000000    
_CPPDONE=FALSE
_DKROLL_DONE=  0.000000000000000    
_FNUC_DONE=  0.000000000000000    
_FOCKDONE=  0.000000000000000    
_GRADONE=FALSE
_HESSDONE=FALSE
_INTDONE=TRUE
_SCFDONE=FALSE
_MODUL_BLOCK=FALSE
_MODUL_CUDA=FALSE
_MODUL_SLATER=FALSE
_MODUL_MRCC=TRUE
_MODUL_NBO6=FALSE
_MODUL_NECI=FALSE
_MODUL_AIMS=TRUE
_MODUL_GECCO=FALSE
_ISWINDOWS=FALSE
_MRCC_EXEC=/software/cinetica/mrcc/bin/dmrcc
_FITC_AO_SAVED=FALSE
_FITC_MO_SAVED=FALSE
_SHARED_FS=TRUE
_LSTYP=SEWARD
_INTYP=INTS
_GEOMTYP=ZMAT
_GRADTYP=ALASKA
_DIRECT=FALSE
_DKHO= -1.000000000000000    
_FNUC=  0.000000000000000    
_SYNCM=  0.000000000000000    
_BASIS=CC-PVDZ
_ZORIENT=  1.000000000000000    
!ZORIENT=  0.000000000000000    
_NELEC=  18.00000000000000    
!SPIN=  0.000000000000000    
_QSDSTEP=  0.000000000000000    
_QSDIRC=  0.000000000000000    
_PROGRAM=RS2
_CPUSTEP= 0.1399999999999999    
_SYSSTEP= 0.6000000000000005E-01
_WALLSTEP= 0.4500000000000000    
!DFMP2=  0.000000000000000    
!DFHFENERG=  0.000000000000000    
!SCSGRD=  0.000000000000000    
_CPUTOT=  1.100000000000000    
_DMX= 0.8017631432825413E-04
_DMY=-0.6553658567699750E-04
_DMZ= 0.1365773739768570E-05
_EMP2= -79.43649589983062    
_ENERGR= -79.16210279216082    
_ENERGU= -79.41955676000097    
_ENERGY= -79.43649589983062    
_ENERGY_METHOD=RS2
_ENERGY_BASIS=cc-pVDZ
_GEOMETRY_METHOD=
_GEOMETRY_BASIS=
_ENERGY_AVRG= -79.16210279216092    
_ENUC=  35.53745230706655    
_GRADMETHOD=  9.000000000000000    
_NMRMETHOD=  0.000000000000000    
_NMRMAGNET=  0.000000000000000    
!GRID_FREEZE= -1.000000000000000    
!NEESE_INDEX=  0.000000000000000    
_ITERATIONS=  4.000000000000000    
_LASTNELEC=  2.000000000000000    
_LASTSPIN=  0.000000000000000    
_LASTSYM=  1.000000000000000    
_MPP_PROG=  1.000000000000000    
_MSNSTATES=  0.000000000000000    
_RS2PHASE=  0.000000000000000    
_IPROC_MPP=  0.000000000000000    
_IPROC_MPPX=  0.000000000000000    
_NPROC_MPP=  4.000000000000000    
_NPROC_MPPX=  4.000000000000000    
_NPROC_SMP=  1.000000000000000    
_NUMSTEP=  0.000000000000000    
_ORBITAL=  2140.200000000000    
_PI=  3.141592653589793    
!MCACT=  2.000000000000000    
!MCCLOSED=  8.000000000000000    
!MCFREEZE=  0.000000000000000    
!MCMS2=  0.000000000000000    
!MCNEL=  2.000000000000000    
!MCNSTSYM=  1.000000000000000    
!MCSTATE=  1.000000000000000    
!MCSYM=  1.000000000000000    
!MCWEIGHT=  1.000000000000000    
_SEIG_MIN= 0.1097312227722271E-01
_SEWPROP=TRUE
_STATUS=  1.000000000000000    
_SYSTOT= 0.4300000000000000    
_VERSION=  2022002.000000000    
_WALLTOT=  2.550000000000000    
_DATE=27-May-23
_LASTORB=MCSCF
_OUTPUT=/home/chimica2/cavallotti/qm/barrierless/vrc_autom/folders/ch3+ch3/dist_2.4/molpro.out
_PGROUP=C1
_TIME=09:25:41
_LIBMOL=/software/cinetica/molpro_2022.2/lib/
_VIGRDC=  0.000000000000000    
!VIBCNT=  0.000000000000000    
!RGHFCNT=  0.000000000000000    
!SURFREC=  0.000000000000000    
!XSURFREC=  0.000000000000000    
!XPOLYREC=  0.000000000000000    
!ROTREC=  0.000000000000000    
!POLYREC=  0.000000000000000    
!DIPREC=  0.000000000000000    
!DIP4DREC=  0.000000000000000    
!DIPROT=  0.000000000000000    
!DIP4DROT=  0.000000000000000    
!PTREC=  0.000000000000000    
!PT4DREC=  0.000000000000000    
!VSCFREC=  0.000000000000000    
!VCIREC=  0.000000000000000    
!PVCIREC=  0.000000000000000    
!VMP2REC=  0.000000000000000    
!VMCSCFREC=  0.000000000000000    
!VMRCIREC=  0.000000000000000    
!VIBSTATEREC=  0.000000000000000    
!VIBSTATECNT=  0.000000000000000    
!VIBINFO=  0.000000000000000    
!GAREC=  0.000000000000000    
!MCORB=  21402.00000000000    
!DEFCORE=  2.000000000000000    
!SCORE=  0.000000000000000    
!NEWMOL= -1.000000000000000    
!NEWSYM= -1.000000000000000    
_SLFILES=slscratch
_NGSSTO=  9.000000000000000    
_SIN=SIN
_COS=COS
_TAN=TAN
_ACOS=ACOS
_ASIN=ASIN
_ATAN=ATAN
_COSH=COSH
_SINH=SINH
_TANH=TANH
_ABS=ABS
_MOD=MOD
_ERF=ERF
_REFC=REFC
_ERFC=ERFC
_HYPOT=HYPOT
_J0=J0
_J1=J1
_JN=JN
_GAMMA=GAMMA
_LGAMMA=LGAMMA
_Y0=Y0
_Y1=Y1
_YN=YN
_EXP=EXP
_LOG=LOG
_LOG10=LOG10
_SQRT=SQRT
_INT=INT
_NINT=NINT
_MAX=MAX
_MIN=MIN
_COSMO=  0.000000000000000    
_COSMOIT=  0.000000000000000    
_COSMOES=  0.000000000000000    
_COSMOEDS=  0.000000000000000    
_COSMOEC=  0.000000000000000    
_COSMOEDCORR=  0.000000000000000    
_FEPSI=  1.000000000000000    
_SL_IsMM=  0.000000000000000    
_SL_NSYM=  1.000000000000000    
_SL_System_BitSw=  0.000000000000000    
_SL_Unique_atoms=  0.000000000000000    
_SL_GRAD=  0.000000000000000    
_SL_MAXUPD_Hess=  5.000000000000000    
_SL_N_PRINT_COD=  5.000000000000000    
_SL_PRINT_CODES=  0.000000000000000    
_SL_BasType=  0.000000000000000    
_SL_Energy_Pred=  0.000000000000000    
_SL_New_Coords=  0.000000000000000    
_SL_Total_Nuclea=  0.000000000000000    
_SL_Highest_Mltp=  0.000000000000000    
_SL_Ref_Geom=  0.000000000000000    
_SL_Symmetry_ope=  1.000000000000000    
_SL_agrad=  0.000000000000000    
_SL_GrdMax=  0.000000000000000    
_SL_GrdNorm=  0.000000000000000    
_SL_GrdRMS=  0.000000000000000    
_SL_Hss_Q=  0.000000000000000    
_SL_Hss_X=  0.000000000000000    
_SL_BMxOld=  0.000000000000000    
_SL_KtB=  0.000000000000000    
_SL_TROld=  0.000000000000000    
_SL_No_of_Intern=  0.000000000000000    
_SL_Hess=  0.000000000000000    
_SL_K=  0.000000000000000    
!LATTICE= -1.000000000000000    
!NEWLATTICE=  0.000000000000000    
!LATGRAD_VAR=FALSE
!SEW_LATTICE=  1.000000000000000    
!AIC_ONEEL=  0.000000000000000    
!LOCAL=  0.000000000000000    
!SAVEDOM= -1.000000000000000    
!RESTDOM= -1.000000000000000    
!SAVEDOM_HF= -1.000000000000000    
!RESTDOM_HF= -1.000000000000000    
!HESSREC=  0.000000000000000    
!FREQREC=  0.000000000000000    
!NMODREC=  0.000000000000000    
!GTASKS=  0.000000000000000    
!HTASKS=  0.000000000000000    
!SAVEDOM_EOM= -1.000000000000000    
!RESTDOM_EOM= -1.000000000000000    
!GRADSTATE= -1.000000000000000    
!DEBUG=  0.000000000000000    
!CFIT_CPHF=  0.000000000000000    
!RDOMAUX_CPHF=  0.000000000000000    
!THRAO_CPHF= 0.1000000000000000E-11
!THRMO_CPHF= 0.1000000000000000E-11
!THROV_CPHF= 0.1000000000000000E-11
!THRSW_CPHF= 0.1000000000000000E-11
!THRPROD_CPHF= 0.1000000000000000E-11
!THRAOPR_CPHF= 0.1000000000000000E-11
!CFIT_SCFGRD=  0.000000000000000    
!RDOMAUX_SCFGRD=  0.000000000000000    
!THRAO_SCFGRD= 0.1000000000000000E-11
!THRMO_SCFGRD= 0.1000000000000000E-11
!THROV_SCFGRD= 0.1000000000000000E-11
!THRSW_SCFGRD= 0.1000000000000000E-11
!THRPROD_SCFGRD= 0.1000000000000000E-11
!THRAOPR_SCFGRD= 0.1000000000000000E-11
!LOCFIT_SCF=  0.000000000000000    
!LOCFIT_MP2=  0.000000000000000    
_RIDOM=  0.000000000000000    
!CC2_METHOD=  0.000000000000000    
_BASIS2006=FALSE
_SVDDEL= -1.000000000000000    
_SVDDELA= -1.000000000000000    
_SVDDELP= -1.000000000000000    
_SVDDELF= -1.000000000000000    
_SVDDELS= -1.000000000000000    
_SVDDEL_ABS= -1.000000000000000    
_SVDDELA_ABS= -1.000000000000000    
_SVDDELP_ABS= -1.000000000000000    
_SVDDELF_ABS= -1.000000000000000    
_SVDDELS_ABS= -1.000000000000000    
_MAXBASIS=  0.000000000000000    
!OPT_CONICAL=  0.000000000000000    
!CLEARSP_JGRID=  0.000000000000000    
_GRDHYBR=  0.000000000000000    
_STATEGRAD=  1.000000000000000    
_4EXT_NDISKS=  1.000000000000000    
!EMBEDFLAG=  1.000000000000000    
!EMBED=FALSE
!EMBED_F12=FALSE
!EMBEDNUC=  0.000000000000000    
_EMBEDENERGY=  0.000000000000000    
!EMBED_DFC=FALSE
!NUM_VOIDS=  0.000000000000000    
_IBODY=  0.000000000000000    
_EMBE_CORR=  0.000000000000000    
!EMBED_PROJ=FALSE
!EMB_PROJ_ZMU=  1000000.000000000    
!CORRECTION_HF=  0.000000000000000    
!EMBED_AORB=  0.000000000000000    
!EMBED_NACORR=  0.000000000000000    
!EMBED_MP2=FALSE
!EMBED_TRUNC_PERTURBATION=FALSE
!EMBED_FROZEN=  0.000000000000000    
!EMBED_ACTIVE=  0.000000000000000    
_CHANGE_BASIS=FALSE
_RESTORE_BASIS=FALSE
_FIX_EMBED_GUESS=FALSE
_EMBED_SCF=FALSE
_HUZINAGA_T=FALSE
_HUZINAGA_F=FALSE
_HUZINAGA=FALSE
_HUZINAGA_CORRECT=FALSE
!FASTLATGRAD=  1.000000000000000    
!FASTVLAMBDA= -1.000000000000000    
!IFORCE= -1.000000000000000    
!USESYM= -1.000000000000000    
_SINDEX=  0.000000000000000    
_AVDOM_OSV=  0.000000000000000    
_AVDOM_PNO=  0.000000000000000    
_AVDOM_PAO=  0.000000000000000    
_AVDOM_LMO=  0.000000000000000    
_CC2OSV_FLAG=  0.000000000000000    
_EOMCCSD_CONV=FALSE
_TMADC2_FLAG=FALSE
_PROPADC2_FLAG=FALSE
_LEN_VirQ=  0.000000000000000    
_GRDCC2LR_FLAG=FALSE
_GRDADC2_FLAG=FALSE
_DMX_CC=-0.5094684841155939E-03
_DMY_CC= 0.1860248808182252E-02
_DMZ_CC= 0.9919133971791894E-04
_DMX_NUC= 0.3670589830001569E-03
_DMY_NUC=-0.2030951567000061E-02
_DMZ_NUC=-0.6330228699846785E-04
_RO_VGLOBAL=  0.000000000000000    
_OPT=FALSE
_FREQ=FALSE
_HESS=FALSE
_CMRCC_callName=EMPTY
_CMRCC_callCount=  0.000000000000000    
_GECCO_CIROOT=  1.000000000000000    
_SYM_CATION=  0.000000000000000    
_MON_A=FALSE
_MON_B=FALSE
R1=  1.080200000000000    
R2=  1.080400000000000    
R3=  1.080400000000000    
A2=  115.9263000000000    
A3=  115.9365000000000    
D3=  219.2651000000000    
R21=  1.080200000000000    
R22=  1.080400000000000    
R23=  1.080400000000000    
A22=  115.9292000000000    
A23=  115.9366000000000    
D23=  140.7391000000000    
ANG2=  101.8501000000000    
DH3=  109.6043000000000    
DH2=  60.01580000000000    
DH1=  109.6326000000000    
ANG1=  101.8447000000000    
BB=  2.400000000000000    
GX1= 0.1149419004250751E-03
GY1= 0.1773095234806621E-03
GZ1= -2.267665995101366    
GX2= 0.9574372832213809    
GY2=  1.753707193429548    
GZ2= -2.686592882587274    
GX3=  1.038808297331003    
GY3= -1.706474956893318    
GZ3= -2.688177754097371    
GX4= -1.997140015870476    
GY4=-0.4942590799466018E-01
GZ4= -2.688246711500191    
GX5=-0.1769830038345355E-03
GY5= 0.1659663004475176E-03
GZ5=  2.267676694591180    
GX6= -1.040606580784180    
GY6=  1.705650885584985    
GZ6=  2.686795172062806    
GX7=  1.997320111775554    
GY7= 0.4707779050077909E-01
GZ7=  2.687415448619502    
GX8=-0.9550797900667398    
GY8= -1.754625611132884    
GZ8=  2.688679228274259    
CBSEN= -79.43649589983062    
[Atoms] Angs
C     1    6         0.0000608246        0.0000938282       -1.1999971665
H     2    1         0.5066539911        0.9280218814       -1.4216837284
H     3    1         0.5497136774       -0.9030276582       -1.4225224063
H     4    1        -1.0568409834       -0.0261550641       -1.4225588970
C     5    6        -0.0000936554        0.0000878256        1.2000028285
H     6    1        -0.5506652881        0.9025915784        1.4217907754
H     7    1         1.0569362860        0.0249124939        1.4221190116
H     8    1        -0.5054064595       -0.9285078871        1.4227877750
[GTO]
   1 0
 s    9  1.00
  0.6665000000D+04  0.6920001793D-03
  0.1000000000D+04  0.5329001381D-02
  0.2280000000D+03  0.2707700701D-01
  0.6471000000D+02  0.1017180264D+00
  0.2106000000D+02  0.2747400712D+00
  0.7495000000D+01  0.4485641162D+00
  0.2797000000D+01  0.2850740738D+00
  0.5215000000D+00  0.1520400394D-01
  0.1596000000D+00 -0.3191000827D-02
 s    9  1.00
  0.6665000000D+04 -0.1460000642D-03
  0.1000000000D+04 -0.1154000508D-02
  0.2280000000D+03 -0.5725002519D-02
  0.6471000000D+02 -0.2331201026D-01
  0.2106000000D+02 -0.6395502813D-01
  0.7495000000D+01 -0.1499810660D+00
  0.2797000000D+01 -0.1272620560D+00
  0.5215000000D+00  0.5445292395D+00
  0.1596000000D+00  0.5804962554D+00
 s    9  1.00
  0.6665000000D+04  0.0000000000D+00
  0.1000000000D+04  0.0000000000D+00
  0.2280000000D+03  0.0000000000D+00
  0.6471000000D+02  0.0000000000D+00
  0.2106000000D+02  0.0000000000D+00
  0.7495000000D+01  0.0000000000D+00
  0.2797000000D+01  0.0000000000D+00
  0.5215000000D+00  0.0000000000D+00
  0.1596000000D+00  0.1000000000D+01
 p    4  1.00
  0.9439000000D+01  0.3810902127D-01
  0.2002000000D+01  0.2094801169D+00
  0.5456000000D+00  0.5085572839D+00
  0.1517000000D+00  0.4688422617D+00
 p    4  1.00
  0.9439000000D+01  0.0000000000D+00
  0.2002000000D+01  0.0000000000D+00
  0.5456000000D+00  0.0000000000D+00
  0.1517000000D+00  0.1000000000D+01
 d    1  1.00
  0.5500000000D+00  0.1000000000D+01
  
   2 0
 s    4  1.00
  0.1301000000D+02  0.1968498999D-01
  0.1962000000D+01  0.1379769298D+00
  0.4446000000D+00  0.4781477569D+00
  0.1220000000D+00  0.5012397451D+00
 s    4  1.00
  0.1301000000D+02  0.0000000000D+00
  0.1962000000D+01  0.0000000000D+00
  0.4446000000D+00  0.0000000000D+00
  0.1220000000D+00  0.1000000000D+01
 p    1  1.00
  0.7270000000D+00  0.1000000000D+01
  
   3 0
 s    4  1.00
  0.1301000000D+02  0.1968498999D-01
  0.1962000000D+01  0.1379769298D+00
  0.4446000000D+00  0.4781477569D+00
  0.1220000000D+00  0.5012397451D+00
 s    4  1.00
  0.1301000000D+02  0.0000000000D+00
  0.1962000000D+01  0.0000000000D+00
  0.4446000000D+00  0.0000000000D+00
  0.1220000000D+00  0.1000000000D+01
 p    1  1.00
  0.7270000000D+00  0.1000000000D+01
  
   4 0
 s    4  1.00
  0.1301000000D+02  0.1968498999D-01
  0.1962000000D+01  0.1379769298D+00
  0.4446000000D+00  0.4781477569D+00
  0.1220000000D+00  0.5012397451D+00
 s    4  1.00
  0.1301000000D+02  0.0000000000D+00
  0.1962000000D+01  0.0000000000D+00
  0.4446000000D+00  0.0000000000D+00
  0.1220000000D+00  0.1000000000D+01
 p    1  1.00
  0.7270000000D+00  0.1000000000D+01
  
   5 0
 s    9  1.00
  0.6665000000D+04  0.6920001793D-03
  0.1000000000D+04  0.5329001381D-02
  0.2280000000D+03  0.2707700701D-01
  0.6471000000D+02  0.1017180264D+00
  0.2106000000D+02  0.2747400712D+00
  0.7495000000D+01  0.4485641162D+00
  0.2797000000D+01  0.2850740738D+00
  0.5215000000D+00  0.1520400394D-01
  0.1596000000D+00 -0.3191000827D-02
 s    9  1.00
  0.6665000000D+04 -0.1460000642D-03
  0.1000000000D+04 -0.1154000508D-02
  0.2280000000D+03 -0.5725002519D-02
  0.6471000000D+02 -0.2331201026D-01
  0.2106000000D+02 -0.6395502813D-01
  0.7495000000D+01 -0.1499810660D+00
  0.2797000000D+01 -0.1272620560D+00
  0.5215000000D+00  0.5445292395D+00
  0.1596000000D+00  0.5804962554D+00
 s    9  1.00
  0.6665000000D+04  0.0000000000D+00
  0.1000000000D+04  0.0000000000D+00
  0.2280000000D+03  0.0000000000D+00
  0.6471000000D+02  0.0000000000D+00
  0.2106000000D+02  0.0000000000D+00
  0.7495000000D+01  0.0000000000D+00
  0.2797000000D+01  0.0000000000D+00
  0.5215000000D+00  0.0000000000D+00
  0.1596000000D+00  0.1000000000D+01
 p    4  1.00
  0.9439000000D+01  0.3810902127D-01
  0.2002000000D+01  0.2094801169D+00
  0.5456000000D+00  0.5085572839D+00
  0.1517000000D+00  0.4688422617D+00
 p    4  1.00
  0.9439000000D+01  0.0000000000D+00
  0.2002000000D+01  0.0000000000D+00
  0.5456000000D+00  0.0000000000D+00
  0.1517000000D+00  0.1000000000D+01
 d    1  1.00
  0.5500000000D+00  0.1000000000D+01
  
   6 0
 s    4  1.00
  0.1301000000D+02  0.1968498999D-01
  0.1962000000D+01  0.1379769298D+00
  0.4446000000D+00  0.4781477569D+00
  0.1220000000D+00  0.5012397451D+00
 s    4  1.00
  0.1301000000D+02  0.0000000000D+00
  0.1962000000D+01  0.0000000000D+00
  0.4446000000D+00  0.0000000000D+00
  0.1220000000D+00  0.1000000000D+01
 p    1  1.00
  0.7270000000D+00  0.1000000000D+01
  
   7 0
 s    4  1.00
  0.1301000000D+02  0.1968498999D-01
  0.1962000000D+01  0.1379769298D+00
  0.4446000000D+00  0.4781477569D+00
  0.1220000000D+00  0.5012397451D+00
 s    4  1.00
  0.1301000000D+02  0.0000000000D+00
  0.1962000000D+01  0.0000000000D+00
  0.4446000000D+00  0.0000000000D+00
  0.1220000000D+00  0.1000000000D+01
 p    1  1.00
  0.7270000000D+00  0.1000000000D+01
  
   8 0
 s    4  1.00
  0.1301000000D+02  0.1968498999D-01
  0.1962000000D+01  0.1379769298D+00
  0.4446000000D+00  0.4781477569D+00
  0.1220000000D+00  0.5012397451D+00
 s    4  1.00
  0.1301000000D+02  0.0000000000D+00
  0.1962000000D+01  0.0000000000D+00
  0.4446000000D+00  0.0000000000D+00
  0.1220000000D+00  0.1000000000D+01
 p    1  1.00
  0.7270000000D+00  0.1000000000D+01


[MO]
 Sym=      1.1
 Ene=     -11.2367
 Spin= Alpha
 Occup=    2.000000
1 0.69826999648031
2 0.005004650043242
3 -0.005273591010373
4 0.000000041716140
5 -0.000000013848151
6 -0.000742750528480
7 0.000000540507925
8 0.000000407935649
9 0.000329352328548
10 0.000174256412136
11 0.000175866526279
12 -0.000350122938415
13 0.000001580052539
14 0.000000236152868
15 0.000000395801894
16 -0.000221845318925
17 0.000998904655747
18 0.000134547203558
19 0.000246611499363
20 -0.000125142845948
21 -0.000219549437805
22 0.000996945239769
23 0.000146484952126
24 -0.000239319234515
25 -0.000124980809402
26 -0.000219508777930
27 0.000997408239034
28 -0.000280496267821
29 -0.000006182516140
30 -0.000124978766224
31 0.71760033159160
32 0.005181652377122
33 -0.005488039031164
34 0.000000298568725
35 0.000000048383618
36 0.000751169970708
37 -0.000001007395496
38 0.000000362812903
39 -0.000306623952396
40 0.000183389150369
41 0.000185186200495
42 -0.000368575350864
43 -0.000001627834559
44 -0.000000018216295
45 -0.000000462387986
46 -0.000223344622727
47 0.001024120093833
48 -0.000151194876699
49 0.000247900800837
50 0.000125593728901
51 -0.000220427120309
52 0.001022477558104
53 0.000289868931766
54 0.000007575981295
55 0.000125203220817
56 -0.000221135075346
57 0.001022180945195
58 -0.000139289886087
59 -0.000254418457010
60 0.000125500695367
 Sym=      2.1
 Ene=     -11.2367
 Spin= Alpha
 Occup=    2.000000
1 0.71796331083840
2 0.006554309887199
3 -0.007931942818745
4 -0.000000071163602
5 -0.000000303034571
6 -0.000321378414452
7 0.000000400486802
8 0.000001813819612
9 -0.000825207948329
10 0.000339475094068
11 0.000340866221394
12 -0.000680341315461
13 0.000001481063178
14 0.000000245229512
15 0.000000456995572
16 -0.000052900286888
17 0.000936574201805
18 0.000167566798911
19 0.000306934196214
20 -0.000016973632467
21 -0.000049984097356
22 0.000935830838247
23 0.000182047089530
24 -0.000298036238490
25 -0.000016674361050
26 -0.000050371382935
27 0.000935434151146
28 -0.000349219977090
29 -0.000008106148074
30 -0.000016762416844
31 -0.69864301941037
32 -0.006415336771699
33 0.007785056841190
34 -0.000000313557253
35 0.000000240861613
36 -0.000300860207079
37 0.000000989043539
38 -0.000001566550082
39 -0.000833960069340
40 -0.000334578385145
41 -0.000335971025177
42 0.000670549410322
43 0.000001434275078
44 0.000000003766351
45 0.000000492804724
46 0.000046886091146
47 -0.000908929036342
48 0.000178069373144
49 -0.000291864929141
50 -0.000013577342011
51 0.000044023314147
52 -0.000907914306625
53 -0.000341432432874
54 -0.000008553120416
55 -0.000013201401631
56 0.000044317475558
57 -0.000908267231525
58 0.000163694428356
59 0.000299674900099
60 -0.000013346463863
 Sym=      3.1
 Ene=      -0.9125
 Spin= Alpha
 Occup=    2.000000
1 -0.019927304060586
2 0.51585907814748
3 -0.10833312768746
4 -0.000001821008786
5 -0.000023143264985
6 -0.080438753762608
7 0.000021138369179
8 0.000042507760010
9 0.010923223763254
10 0.000017477466719
11 0.000021099558955
12 -0.000038577025674
13 0.000001439884563
14 0.000001155061547
15 0.000002163457875
16 0.24895261745837
17 -0.10244692054715
18 -0.009448761822642
19 -0.017307764155761
20 0.001664691141994
21 0.24890046320955
22 -0.10239402635672
23 -0.010250991228640
24 0.016835070774535
25 0.001678959286353
26 0.24889667555749
27 -0.10239308154689
28 0.019704977062124
29 0.000485001402205
30 0.001679674832779
31 -0.019927611616578
32 0.51587401471109
33 -0.10833479826184
34 0.000057864262910
35 -0.000008418790088
36 0.080435005556167
37 -0.000033760302312
38 0.000037002647724
39 -0.010920382707722
40 0.000018631184768
41 0.000020358414459
42 -0.000038989599227
43 -0.000001854084935
44 -0.000000467522796
45 -0.000002101257128
46 0.24895314101105
47 -0.10244794401502
48 0.010270764851788
49 -0.016833087819061
50 -0.001666866083880
51 0.24891477637381
52 -0.10239938073512
53 -0.019706768646748
54 -0.000466691827432
55 -0.001670942885919
56 0.24889683472790
57 -0.10239445523074
58 0.009426011872109
59 0.017310550288982
60 -0.001684446987795
 Sym=      4.1
 Ene=      -0.8792
 Spin= Alpha
 Occup=    2.000000
1 -0.016975306003902
2 0.53705296830577
3 -0.11875124623601
4 -0.000021845908113
5 -0.000060673605333
6 -0.082952131445360
7 0.000017077574770
8 0.000056227662046
9 0.014917960222049
10 0.002395682158414
11 0.002395764344175
12 -0.004791446502589
13 0.000000860617874
14 0.000001156313941
15 0.000002951789348
16 0.25768728382858
17 -0.10564641899717
18 -0.009515741341957
19 -0.017431593154872
20 0.002652331971148
21 0.25768851577038
22 -0.10560220653259
23 -0.010326189474306
24 0.016956301309832
25 0.002666090964607
26 0.25767857866606
27 -0.10560610764718
28 0.019846960957003
29 0.000486713540178
30 0.002666361408755
31 0.016974989495493
32 -0.53704397921583
33 0.11874716623170
34 -0.000056662935579
35 0.000048867626412
36 -0.082940005366954
37 0.000035365906963
38 -0.000049627584761
39 0.014915495822078
40 -0.002395221713752
41 -0.002396050636888
42 0.004791272350640
43 0.000000815110868
44 -0.000000100462940
45 0.000003278154685
46 -0.25768210334526
47 0.10564535589009
48 -0.010343113167740
49 0.016953207156038
50 0.002654233554019
51 -0.25766729823717
52 0.10559819794891
53 0.019847322087686
54 0.000471865635473
55 0.002658245522031
56 -0.25768368104123
57 0.10560371556594
58 -0.009494774702012
59 -0.017434776464589
60 0.002671215932473
 Sym=      5.1
 Ene=      -0.5693
 Spin= Alpha
 Occup=    2.000000
1 -0.000005888309036
2 0.000109060913269
3 0.000010790513397
4 0.000802449639096
5 0.44910869363719
6 0.000185102843242
7 -0.000266914001498
8 -0.081904417535729
9 -0.000047259153769
10 -0.001034423849671
11 0.001032419936939
12 0.000002003912732
13 0.016375718383065
14 -0.000038191195464
15 -0.008000948107040
16 0.38539657935661
17 -0.10859224089055
18 -0.009748915429929
19 -0.008943318479666
20 0.003773454320975
21 -0.37412239920827
22 0.10542206900841
23 0.010302724351611
24 -0.007950307319751
25 -0.003666853929727
26 -0.011444685726875
27 0.003219574582266
28 -0.000598006594989
29 0.008931442362304
30 -0.000111260936932
31 -0.000005430281998
32 0.000100616501589
33 0.000008234701145
34 -0.006178703941909
35 0.44920476322816
36 -0.000214485839940
37 0.001246847110085
38 -0.081920313125321
39 0.000053969185096
40 0.000852219698881
41 -0.000852350794690
42 0.000000131095809
43 -0.016389515390559
44 -0.000132339266682
45 0.008008863152647
46 0.37767020060819
47 -0.10641851131654
48 0.010277443172729
49 -0.008103384444751
50 -0.003700340683868
51 0.004475358486835
52 -0.001266405634249
53 -0.000350884474062
54 0.008943156322617
55 -0.000045572767803
56 -0.38230369077296
57 0.10772932046269
58 -0.009787401541493
59 -0.008805793564112
60 0.003751607633119
 Sym=      6.1
 Ene=      -0.5691
 Spin= Alpha
 Occup=    2.000000
1 -0.000001836856906
2 0.000068251232371
3 -0.000007829776383
4 0.44914939675412
5 0.006253764903747
6 0.000108016275353
7 -0.081825599719458
8 -0.001264739287875
9 -0.000027108229824
10 -0.014208974009564
11 0.014210614439535
12 -0.000001640429971
13 -0.000965719545702
14 -0.008009781185237
15 -0.000135884610374
16 0.21560255100943
17 -0.060710300867728
18 0.003482931526398
19 -0.009882990769076
20 0.002112844909696
21 0.22303970707126
22 -0.062820216429979
23 0.002823110900575
24 0.010190663358159
25 0.002188839096325
26 -0.43870033961619
27 0.12354486675123
28 -0.014236158513852
29 -0.000448487076334
30 -0.004303361428018
31 0.000001855204026
32 -0.000121276275510
33 0.000008538094776
34 0.44916624631641
35 -0.000877728827647
36 -0.000063873562105
37 -0.081833287280855
38 0.000284797686273
39 0.000006765088932
40 0.014200762802640
41 -0.014197834640167
42 -0.000002928162472
43 0.001216057534150
44 0.008002885820728
45 -0.000038492007658
46 -0.22931160080766
47 0.064570648253681
48 0.002631815130165
49 0.010334115696479
50 0.002244942953690
51 0.43853290853117
52 -0.12349441477944
53 -0.014228791500637
54 -0.000564557815667
55 -0.004294995216242
56 -0.20918855914264
57 0.058918442129098
58 0.003667813813076
59 -0.009724022783581
60 0.002052691640131
 Sym=      7.1
 Ene=      -0.5466
 Spin= Alpha
 Occup=    2.000000
1 -0.000002850216187
2 0.000194186916784
3 -0.000015215901687
4 -0.004551112263768
5 0.46020432141494
6 0.000146303288088
7 0.000758204936589
8 -0.088180295924354
9 -0.000045068831376
10 -0.000896917630786
11 0.000904604088050
12 -0.000007686457264
13 0.016983144680375
14 0.000096390868630
15 -0.012049469543729
16 0.40007208915921
17 -0.10513514592080
18 -0.010276969653390
19 -0.009251891668304
20 0.004027841068297
21 -0.39356731326841
22 0.10341865008838
23 0.010777060917152
24 -0.008452453517145
25 -0.003966388754745
26 -0.006554275740666
27 0.001725004013509
28 -0.000450620103916
29 0.009395881437498
30 -0.000063107577511
31 0.000002853218616
32 -0.000179038793264
33 0.000015344015143
34 -0.002407734284079
35 -0.46013394508166
36 0.000184988086903
37 0.000347055482880
38 0.088169450014096
39 -0.000053811593289
40 -0.001164925593176
41 0.001156281531164
42 0.000008644062012
43 0.016954614831753
44 -0.000041476756250
45 -0.012055067720065
46 -0.38988637702220
47 0.10245938001819
48 -0.010836130438303
49 0.008280802445682
50 0.003928014875397
51 -0.013418593365561
52 0.003523674132248
53 0.000654179691057
54 -0.009387007526756
55 0.000138821706292
56 0.40335237899781
57 -0.10598897365474
58 0.010192825100652
59 0.009414178009726
60 -0.004069708900651
 Sym=      8.1
 Ene=      -0.5464
 Spin= Alpha
 Occup=    2.000000
1 -0.000002052909687
2 0.000072378094881
3 -0.000003845145601
4 0.46018735887440
5 -0.002333583657042
6 0.000099859669337
7 -0.088074218181731
8 0.000337056537202
9 -0.000026004652212
10 -0.014703694729727
11 0.014706328564402
12 -0.000002633834675
13 -0.001322218281387
14 -0.012058618888529
15 0.000038849725576
16 0.21755200770508
17 -0.057138094468897
18 0.003864620422771
19 -0.010191941804291
20 0.002190203118985
21 0.24041510009060
22 -0.063130439860379
23 0.002771296858132
24 0.010851798790582
25 0.002426559948241
26 -0.45801565602368
27 0.12028158967293
28 -0.014910356822446
29 -0.000650246954203
30 -0.004618259725121
31 -0.000003229430054
32 0.000074911731963
33 0.000006284714351
34 -0.46015011205253
35 -0.004474768825162
36 0.000049100229833
37 0.088066574788303
38 0.000746319713084
39 -0.000007620693894
40 -0.014727050273001
41 0.014720777611734
42 0.000006272661267
43 -0.001062643237199
44 -0.012048898229000
45 -0.000096272521671
46 0.23488650067559
47 -0.061689833615794
48 -0.002903679282190
49 -0.010742921491125
50 -0.002362210019345
51 -0.45814906398846
52 0.12031895215814
53 0.014921502083798
54 0.000481174343167
55 0.004612837332617
56 0.22315975304910
57 -0.058597596748514
58 -0.003743594092027
59 0.010309979631161
60 -0.002251988126184
 Sym=      9.1
 Ene=      -0.2950
 Spin= Alpha
 Occup=    1.803484
1 -0.003176638535558
2 0.11711066780327
3 0.044632550930399
4 -0.000150340260304
5 -0.000247305044967
6 0.55405904744451
7 -0.000000572680011
8 -0.000001296470493
9 0.043126523103033
10 -0.008456692309732
11 -0.008463700618019
12 0.016920392927751
13 -0.000007689656335
14 -0.000007585615127
15 -0.000013551729507
16 -0.073048449262889
17 0.011791496120994
18 0.001164423257614
19 0.002133873233346
20 0.011761228591150
21 -0.072923845378289
22 0.011840216204435
23 0.001263901870242
24 -0.002081849540254
25 0.011755554870734
26 -0.072925749220506
27 0.011829681975759
28 -0.002435382848112
29 -0.000062699638908
30 0.011755288263822
31 -0.003176790336752
32 0.11708963620740
33 0.044630388404591
34 -0.000054487869868
35 -0.000295653969590
36 -0.55405923471754
37 -0.000013157125389
38 -0.000006020069480
39 -0.043128667003362
40 -0.008456676269421
41 -0.008463932844941
42 0.016920609114363
43 0.000008049874047
44 -0.000004076136221
45 0.000013241351018
46 -0.073045265466147
47 0.011797734632667
48 -0.001270653922155
49 0.002073707268020
50 -0.011761743941891
51 -0.072928455795108
52 0.011812847683738
53 0.002431111160535
54 0.000053679349489
55 -0.011755086078550
56 -0.072915178640005
57 0.011847741685297
58 -0.001166680515674
59 -0.002141096493342
60 -0.011755986117839
 Sym=     10.1
 Ene=       0.1374
 Spin= Alpha
 Occup=    0.196516
1 0.009969457977911
2 0.28669607162937
3 0.061968951395547
4 -0.000189361155032
5 -0.000310002848210
6 0.78422929985742
7 0.000003377630919
8 0.000011587988342
9 0.001779190606323
10 -0.011024092714410
11 -0.011029829236629
12 0.022053921951038
13 -0.000006047531627
14 -0.000016991818044
15 -0.000030794192304
16 -0.042330695807664
17 0.003736633194530
18 0.000365719559661
19 0.000670550760692