
 Working directory              : /scratch/cc//molpro.MZXeJcZ4Yc/
 Global scratch directory       : /scratch/cc//molpro.MZXeJcZ4Yc/
 Wavefunction directory         : /home/chimica2/cavallotti/wfu/
 Main file repository           : /scratch/cc//molpro.MZXeJcZ4Yc/

 id        : polimi

 Nodes     nprocs
 node-6-11    1
 Distribution of processes:   nprocs(total)=    2   nprocs(compute)=    1   nprocs(helper)=    1
 GA implementation: MPI file
 GA implementation (serial work in mppx): MPI file

 Using customized tuning parameters: mindgm=1; mindgv=20; mindgc=4; mindgr=1; noblas=0; minvec=7
 default implementation of scratch files=df  


 Variables initialized (1009), CPU time= 0.01 sec
  memory,         400 ,m
 
 symmetry, nosym; orient, noorient
 angstrom
 geomtyp=xyz
 geometry={
 5
 rotational dynamics
 C, 0.0474564, -0.244936, 0.00382972
 H, 1.00677, -0.725182, 0.11148
 H, -0.85813, -0.814007, 0.140176
 H, -0.00637402, 0.804644, -0.237013
 H, -0.707325, 3.65095, -0.0602421
 }
 
  basis=cc-pvdz
  {multi;closed, 4;occ, 6;wf, 10,1,0,;state,1;maxiter,40}
  if (iterations.ge.0) then
     {rs2,shift=0.2;orbital,IGNORE_ERROR;state,1}
     molpro_energy = energy +   40.192865169999997
  else
     molpro_energy = 10.0
  endif
 Commands initialized (810), CPU time= 0.01 sec, 661 directives.
 Default parameters read. Elapsed time= 0.16 sec

 Checking input...
 Passed
1


                                         ***  PROGRAM SYSTEM MOLPRO  ***
                                       Copyright, TTI GmbH Stuttgart, 2015
                                    Version 2021.2 linked Jun  2 2021 16:00:59


 **********************************************************************************************************************************
 LABEL *                                                                                 
  64 bit serial version                                                                  DATE: 03-Jun-23          TIME: 09:16:09  
 **********************************************************************************************************************************

 SHA1:             1987c3f1b0c3ae76932bc24993909f2d7ae6b1f1
 **********************************************************************************************************************************

 Memory per process:       400 MW
 Total memory per node:    400 MW

 GA preallocation disabled
 GA check disabled

 Variable memory set to 400.0 MW

 SETTING GEOMTYP        =    XYZ
 ZSYMEL=NOSYM
 ZUNIT=ANG

 SETTING BASIS          =    CC-PVDZ


 Recomputing integrals since basis changed


 Using spherical harmonics

 Library entry C      S cc-pVDZ              selected for orbital group  1
 Library entry C      P cc-pVDZ              selected for orbital group  1
 Library entry C      D cc-pVDZ              selected for orbital group  1
 Library entry H      S cc-pVDZ              selected for orbital group  2
 Library entry H      P cc-pVDZ              selected for orbital group  2


 PROGRAM * SEWARD (Integral evaluation for generally contracted gaussian basis sets)     Author: Roland Lindh, 1990

 Geometry written to block  1 of record 700


 Point group  C1  



 ATOMIC COORDINATES

 NR  ATOM    CHARGE       X              Y              Z

   1  C       6.00    0.089679599   -0.462861958    0.007237122
   2  H       1.00    1.902519570   -1.370395371    0.210666668
   3  H       1.00   -1.621630679   -1.538250294    0.264894249
   4  H       1.00   -0.012045152    1.520556788   -0.447889658
   5  H       1.00   -1.336650531    6.899295595   -0.113841070

 Bond lengths in Bohr (Angstrom)

 1-2  2.037495825  1-3  2.037505861  1-4  2.037507848
     ( 1.078196358)     ( 1.078201669)     ( 1.078202720)

 Bond angles

  2-1-3  119.97228871   2-1-4  120.02086074   3-1-4  120.00657146

 NUCLEAR CHARGE:                   10
 NUMBER OF PRIMITIVE AOS:          55
 NUMBER OF SYMMETRY AOS:           54
 NUMBER OF CONTRACTIONS:           34   (   34A   )
 NUMBER OF INNER CORE ORBITALS:     0   (    0A   )
 NUMBER OF OUTER CORE ORBITALS:     1   (    1A   )
 NUMBER OF VALENCE ORBITALS:        8   (    8A   )


 NUCLEAR REPULSION ENERGY   10.89547113


 Eigenvalues of metric

         1 0.147E-01 0.341E-01 0.352E-01 0.420E-01 0.502E-01 0.542E-01 0.934E-01 0.123E+00


 Contracted 2-electron integrals neglected if value below      1.0D-11
 AO integral compression algorithm  1   Integral accuracy      1.0D-11

     1.049 MB (compressed) written to integral file ( 63.5%)


 NUMBER OF SORTED TWO-ELECTRON INTEGRALS:     177310.     BUFFER LENGTH:  32768
 NUMBER OF SEGMENTS:   1  SEGMENT LENGTH:     177310      RECORD LENGTH: 524288

 Memory used in sort:       0.73 MW

 SORT1 READ      210110. AND WROTE      160395. INTEGRALS IN      1 RECORDS. CPU TIME:     0.00 SEC, REAL TIME:     0.01 SEC
 SORT2 READ      160395. AND WROTE      177310. INTEGRALS IN      4 RECORDS. CPU TIME:     0.02 SEC, REAL TIME:     0.03 SEC

 FILE SIZES:   FILE 1:    31.1 MBYTE,  FILE 4:     4.2 MBYTE,   TOTAL:     35.3 MBYTE

 OPERATOR DM      FOR CENTER  0  COORDINATES:    0.000000    0.000000    0.000000


 **********************************************************************************************************************************
 DATASETS  * FILE   NREC   LENGTH (MB)   RECORD NAMES
              1      19       29.37       500      610      700      900      950      970     1000      129      960     1100   
                                          VAR    BASINP    GEOM    SYMINP    ZMAT    AOBASIS   BASIS     P2S    ABASIS      S 
                                         1400     1410     1200     1210     1080     1600     1650     1300     1700   
                                           T        V       H0       H01     AOSYM     SMH    MOLCAS    ERIS     OPER   

 PROGRAMS   *        TOTAL       INT
 CPU TIMES  *         0.39      0.23
 REAL TIME  *         0.87 SEC
 DISK USED  *        34.01 MB
 **********************************************************************************************************************************

 PROGRAM * MULTI (Direct Multiconfiguration SCF)       Authors: P.J. Knowles, H.-J. Werner (1984)
                                                                D.A. Kreplin, P.J. Knowles, H.-J. Werner (2019)

 Number of closed-shell orbitals:   4 (   4 )
 Number of active  orbitals:        2 (   2 )
 Number of external orbitals:      28 (  28 )

 State symmetry 1

 Number of active electrons:   2    Spin symmetry=Singlet   Space symmetry=1
 Number of states:             1
 Number of CSFs:               3   (4 determinants, 4 intermediate states)

 Orbital guess generated from atomic densities. Full valence occupancy:    9

 Wavefunction dump at record             2140.2

 Convergence thresholds  0.10E-04 (gradient)  0.10E-05 (energy)
 
 Number of orbital rotations:  176  ( 8 closed/active, 112 closed/virtual, 0 active/active, 56 active/virtual )
 Total number of variables:    180
 
  Second-order MCSCF: L-BFGS accelerated
 
 ITER  MIC  NCI  NEG     ENERGY(VAR)    ENERGY(PROJ) ENERGY CHANGE       GRAD(0)  GRAD(ORB)   GRAD(CI)      STEP      TIME
   1    5    4    0    -40.04228133     -40.05878679   -0.01650546    0.14687603 0.00023119 0.00000000  0.14E+00      0.07
   2    6    5    0    -40.05875409     -40.05875642   -0.00000234    0.00213621 0.00000001 0.00000000  0.13E-02      0.17
   3    3    3    0    -40.05875642     -40.05875642   -0.00000000    0.00000088 0.00000000 0.00000000  0.50E-06      0.24

 CONVERGENCE REACHED!  Final gradient:    0.00000000 ( 0.19E-09)
                       Final energy:    -40.05875642
 
 First order charge density matrix for state 1.1 saved on record 2140.2 (density set 1)
 
 Results for state 1.1
 =====================
 !MCSCF STATE 1.1 Energy                       -40.058756424199
 Nuclear energy                                 10.89547113
 Kinetic energy                                 39.99737759
 One electron energy                           -74.49975489
 Two electron energy                            23.54552734
 Virial ratio                                    2.00153457
 
 !MCSCF STATE 1.1 Dipole moment                 -0.00033415     0.00199229     0.00072209
 Dipole moment /Debye                           -0.00084931     0.00506390     0.00183536
 
 No non-zero expectation values
 
 
 Natural orbital dump at molpro section 2140.2 (Orbital set 2)


 **********************************************************************************************************************************
 DATASETS  * FILE   NREC   LENGTH (MB)   RECORD NAMES
              1      20       29.67       500      610      700      900      950      970     1000      129      960     1100   
                                          VAR    BASINP    GEOM    SYMINP    ZMAT    AOBASIS   BASIS     P2S    ABASIS      S 
                                         1400     1410     1200     1210     1080     1600     1650     1300     1700     1380   
                                           T        V       H0       H01     AOSYM     SMH    MOLCAS    ERIS     OPER     JKOP   

              2       4        2.72       700     1000      520     2140   
                                         GEOM     BASIS   MCVARS    MCSCF   

 PROGRAMS   *        TOTAL     MULTI       INT
 CPU TIMES  *         0.60      0.21      0.23
 REAL TIME  *         1.23 SEC
 DISK USED  *        34.01 MB
 **********************************************************************************************************************************


 PROGRAM * RS2 (Multireference RS Perturbation Theory)     Authors: H.-J. Werner (1993), P. Celani (1998)


 Level shift= 0.20

 Convergence thresholds:  THRVAR = 1.00D-08  THRDEN = 1.00D-06

 Number of optimized states: 1  Roots:    1
 Number of reference states: 1  Roots:    1

 Reference symmetry:                   1   Singlet 
 Number of electrons:                 10
 Maximum number of shells:             4
 Maximum number of spin couplings:     5

 Reference space:        3 conf        3 CSFs
 N elec internal:       15 conf       15 CSFs
 N-1 el internal:       23 conf       32 CSFs
 N-2 el internal:       25 conf       52 CSFs

 Number of electrons in valence space:                      8
 Maximum number of open shell orbitals in reference space:  2
 Maximum number of open shell orbitals in internal spaces:  6


 Number of core orbitals:           1 (   1 )
 Number of closed-shell orbitals:   3 (   3 )
 Number of active  orbitals:        2 (   2 )
 Number of external orbitals:      28 (  28 )

 Molecular orbitals read from record     2140.2  Type=MCSCF/NATURAL (state 1.1)

 Integral transformation finished. Total CPU:   0.01 sec, npass=  1  Memory used:   0.11 MW


 Number of p-space configurations:   3

 Reference wavefunction optimized for reference space (refopt=1)

 State     Reference Energy 
     1       -40.05875642

 Number of blocks in overlap matrix:     2   Smallest eigenvalue:  0.10D+01
 Number of N-2 electron functions:      22
 Number of N-1 electron functions:      32

 Number of internal configurations:                   15
 Number of singly external configurations:           896
 Number of doubly external configurations:          8680
 Total number of contracted configurations:         9591
 Total number of uncontracted configurations:      21351

 Weight factors for SA-density in H0:    1.000000

 FIMAX=  0.42D-01  FXMAX=  0.65D-13  DIAG=  F  T  NOREF=1  NOINT=0  IHPPD=2

 Nuclear energy:                      10.89547113
 Core energy:                        -35.57000790
 Zeroth-order valence energy:         -4.36970804
 Zeroth-order total energy:          -29.04424481
 First-order energy:                 -11.01451162

 Using uncontracted singles

 Diagonal Coupling coefficients finished.               Storage:     883 words, CPU-Time:      0.00 seconds.
 Energy denominators for pairs finished in 0 passes.    Storage:    2295 words, CPU-time:      0.00 seconds.

 A level shift of 0.20 is applied.

  ITER. STATE  ROOT     SQ.NORM     CORR.ENERGY   TOTAL ENERGY   ENERGY CHANGE       DEN1      VAR(S)    VAR(P)      TIME
    1     1     1     1.00518560    -0.00103712   -40.05979354    -0.00103712    -0.12597328  0.52D-02  0.36D-01     0.02
    2     1     1     1.04129583    -0.13400851   -40.19276493    -0.13297139     0.00013086  0.16D-04  0.71D-05     0.02
    3     1     1     1.04127187    -0.13404397   -40.19280040    -0.00003546    -0.00002010  0.40D-07  0.46D-07     0.02
    4     1     1     1.04129014    -0.13404778   -40.19280421    -0.00000381     0.00000022  0.49D-09  0.11D-09     0.02
    5     1     1     1.04129014    -0.13404778   -40.19280420     0.00000000    -0.00000006  0.17D-11  0.18D-11     0.03

 Energies without level shift correction:

    5     1     1     1.04129014    -0.12578975   -40.18454618

 Energy contributions for state 1.1:
 ===================================

            Energy contr.      SQ.Norm of FOWF
 Space I     -0.00000044          0.00000049
 Space S     -0.01127965          0.00509184
 Space P     -0.11450966          0.03619780


 =====================================
 Analysis of CPU times by interactions
 =====================================

       I      S      P

 I   0.0%
 S   0.0%   0.0%
 P   0.0%   0.0%   0.0%

 Initialization:  66.7%
 Other:           33.3%

 Total CPU:        0.0 seconds
 =====================================



 gnormi=  1.00000049  gnorms=  0.00509184  gnormp=  0.03619780  gnorm=  1.04129014
 ecorri= -0.00000044  ecorrs= -0.01127965  ecorrp= -0.11450966  ecorr= -0.13404778

 Reference coefficients greater than 0.0500000
 =============================================
 22220           0.7131328
 22202          -0.7010290


 RESULTS FOR STATE 1.1
 =====================

 Coefficient of reference function:   C(0) = 1.00000000 (fixed)   1.00000000 (relaxed)

 Energy contributions of configuration classes

 CLASS          SQ.NORM        ECORR1        ECORR2
 +++++++++++++++++++++++++++++++++++++++++++++++++++
 Internals    0.00000049   -0.00000044    0.13404685
 Singles      0.00509184   -0.01127965   -0.02404031
 Pairs        0.03619780   -0.11450966   -0.24405432
 Total        1.04129014   -0.12578975   -0.13404778
 +++++++++++++++++++++++++++++++++++++++++++++++++++


 Reference energy                     -40.05875642
 Nuclear energy                        10.89547113
 Kinetic energy                        40.08801120
 One electron energy                  -74.43464504
 Two electron energy                   23.34636971
 Virial quotient                       -1.00261407
 Correlation energy                    -0.13404778
 !RSPT2 STATE 1.1 Energy              -40.192804204647

 Properties without orbital relaxation:

 !RSPT2 STATE 1.1 Dipole moment        -0.00036972     0.00207636     0.00077266
 Dipole moment /Debye                  -0.00093974     0.00527759     0.00196392


 **********************************************************************************************************************************
 DATASETS  * FILE   NREC   LENGTH (MB)   RECORD NAMES
              1      20       29.67       500      610      700      900      950      970     1000      129      960     1100   
                                          VAR    BASINP    GEOM    SYMINP    ZMAT    AOBASIS   BASIS     P2S    ABASIS      S 
                                         1400     1410     1200     1210     1080     1600     1650     1300     1700     1380   
                                           T        V       H0       H01     AOSYM     SMH    MOLCAS    ERIS     OPER     JKOP   

              2       4        2.72       700     1000      520     2140   
                                         GEOM     BASIS   MCVARS    MCSCF   

 PROGRAMS   *        TOTAL       RS2     MULTI       INT
 CPU TIMES  *         0.67      0.06      0.21      0.23
 REAL TIME  *         1.38 SEC
 DISK USED  *        34.01 MB
 **********************************************************************************************************************************
 SETTING MOLPRO_ENERGY  =     6.09653534D-05  AU                              

 RS2/cc-pVDZ energy=    -40.192804204647

             RS2           MULTI
    -40.19280420    -40.05875642
 **********************************************************************************************************************************
 Molpro calculation terminated
