
 Working directory              : /scratch/cc//molpro.7pLXjc7BKu/
 Global scratch directory       : /scratch/cc//molpro.7pLXjc7BKu/
 Wavefunction directory         : /home/chimica2/cavallotti/wfu/
 Main file repository           : /scratch/cc//molpro.7pLXjc7BKu/

 id        : polimi

 Nodes     nprocs
 node-6-11    1
 Distribution of processes:   nprocs(total)=    2   nprocs(compute)=    1   nprocs(helper)=    1
 GA implementation: MPI file
 GA implementation (serial work in mppx): MPI file

 Using customized tuning parameters: mindgm=1; mindgv=20; mindgc=4; mindgr=1; noblas=0; minvec=7
 default implementation of scratch files=df  


 Variables initialized (1009), CPU time= 0.00 sec
  memory,         400 ,m
 
 symmetry, nosym; orient, noorient
 angstrom
 geomtyp=xyz
 geometry={
 5
 rotational dynamics
 C, 0.0332882, 0.229885, -0.0907159
 H, -0.0115614, -0.743845, -0.551534
 H, 0.904026, 0.850898, -0.227383
 H, -0.793489, 0.583836, 0.503993
 H, -0.495332, -3.42809, 1.35506
 }
 
  basis=cc-pvdz
  {multi;closed, 4;occ, 6;wf, 10,1,0,;state,1;maxiter,40}
  if (iterations.ge.0) then
     {rs2,shift=0.2;orbital,IGNORE_ERROR;state,1}
     molpro_energy = energy +   40.192865169999997
  else
     molpro_energy = 10.0
  endif
 Commands initialized (810), CPU time= 0.01 sec, 661 directives.
 Default parameters read. Elapsed time= 0.16 sec

 Checking input...
 Passed
1


                                         ***  PROGRAM SYSTEM MOLPRO  ***
                                       Copyright, TTI GmbH Stuttgart, 2015
                                    Version 2021.2 linked Jun  2 2021 16:00:59


 **********************************************************************************************************************************
 LABEL *                                                                                 
  64 bit serial version                                                                  DATE: 03-Jun-23          TIME: 09:16:10  
 **********************************************************************************************************************************

 SHA1:             1987c3f1b0c3ae76932bc24993909f2d7ae6b1f1
 **********************************************************************************************************************************

 Memory per process:       400 MW
 Total memory per node:    400 MW

 GA preallocation disabled
 GA check disabled

 Variable memory set to 400.0 MW

 SETTING GEOMTYP        =    XYZ
 ZSYMEL=NOSYM
 ZUNIT=ANG

 SETTING BASIS          =    CC-PVDZ


 Recomputing integrals since basis changed


 Using spherical harmonics

 Library entry C      S cc-pVDZ              selected for orbital group  1
 Library entry C      P cc-pVDZ              selected for orbital group  1
 Library entry C      D cc-pVDZ              selected for orbital group  1
 Library entry H      S cc-pVDZ              selected for orbital group  2
 Library entry H      P cc-pVDZ              selected for orbital group  2


 PROGRAM * SEWARD (Integral evaluation for generally contracted gaussian basis sets)     Author: Roland Lindh, 1990

 Geometry written to block  1 of record 700


 Point group  C1  



 ATOMIC COORDINATES

 NR  ATOM    CHARGE       X              Y              Z

   1  C       6.00    0.062905581    0.434419690   -0.171428206
   2  H       1.00   -0.021847880   -1.405663329   -1.042248208
   3  H       1.00    1.708361550    1.607964180   -0.429691595
   4  H       1.00   -1.499476893    1.103290142    0.952408739
   5  H       1.00   -0.936041821   -6.478151231    2.560692282

 Bond lengths in Bohr (Angstrom)

 1-2  2.037502428  1-3  2.037506317  1-4  2.037507339
     ( 1.078199852)     ( 1.078201910)     ( 1.078202451)

 Bond angles

  2-1-3  119.97234461   2-1-4  120.02082258   3-1-4  120.00655389

 NUCLEAR CHARGE:                   10
 NUMBER OF PRIMITIVE AOS:          55
 NUMBER OF SYMMETRY AOS:           54
 NUMBER OF CONTRACTIONS:           34   (   34A   )
 NUMBER OF INNER CORE ORBITALS:     0   (    0A   )
 NUMBER OF OUTER CORE ORBITALS:     1   (    1A   )
 NUMBER OF VALENCE ORBITALS:        8   (    8A   )


 NUCLEAR REPULSION ENERGY   10.88304419


 Eigenvalues of metric

         1 0.150E-01 0.350E-01 0.352E-01 0.421E-01 0.535E-01 0.542E-01 0.933E-01 0.123E+00


 Contracted 2-electron integrals neglected if value below      1.0D-11
 AO integral compression algorithm  1   Integral accuracy      1.0D-11

     1.049 MB (compressed) written to integral file ( 65.9%)


 NUMBER OF SORTED TWO-ELECTRON INTEGRALS:     177310.     BUFFER LENGTH:  32768
 NUMBER OF SEGMENTS:   1  SEGMENT LENGTH:     177310      RECORD LENGTH: 524288

 Memory used in sort:       0.73 MW

 SORT1 READ      211739. AND WROTE      163347. INTEGRALS IN      1 RECORDS. CPU TIME:     0.00 SEC, REAL TIME:     0.01 SEC
 SORT2 READ      163347. AND WROTE      177310. INTEGRALS IN      4 RECORDS. CPU TIME:     0.02 SEC, REAL TIME:     0.02 SEC

 FILE SIZES:   FILE 1:    31.1 MBYTE,  FILE 4:     4.2 MBYTE,   TOTAL:     35.3 MBYTE

 OPERATOR DM      FOR CENTER  0  COORDINATES:    0.000000    0.000000    0.000000


 **********************************************************************************************************************************
 DATASETS  * FILE   NREC   LENGTH (MB)   RECORD NAMES
              1      19       29.39       500      610      700      900      950      970     1000      129      960     1100   
                                          VAR    BASINP    GEOM    SYMINP    ZMAT    AOBASIS   BASIS     P2S    ABASIS      S 
                                         1400     1410     1200     1210     1080     1600     1650     1300     1700   
                                           T        V       H0       H01     AOSYM     SMH    MOLCAS    ERIS     OPER   

 PROGRAMS   *        TOTAL       INT
 CPU TIMES  *         0.40      0.24
 REAL TIME  *         0.82 SEC
 DISK USED  *        34.01 MB
 **********************************************************************************************************************************

 PROGRAM * MULTI (Direct Multiconfiguration SCF)       Authors: P.J. Knowles, H.-J. Werner (1984)
                                                                D.A. Kreplin, P.J. Knowles, H.-J. Werner (2019)

 Number of closed-shell orbitals:   4 (   4 )
 Number of active  orbitals:        2 (   2 )
 Number of external orbitals:      28 (  28 )

 State symmetry 1

 Number of active electrons:   2    Spin symmetry=Singlet   Space symmetry=1
 Number of states:             1
 Number of CSFs:               3   (4 determinants, 4 intermediate states)

 Orbital guess generated from atomic densities. Full valence occupancy:    9

 Wavefunction dump at record             2140.2

 Convergence thresholds  0.10E-04 (gradient)  0.10E-05 (energy)
 
 Number of orbital rotations:  176  ( 8 closed/active, 112 closed/virtual, 0 active/active, 56 active/virtual )
 Total number of variables:    180
 
  Second-order MCSCF: L-BFGS accelerated
 
 ITER  MIC  NCI  NEG     ENERGY(VAR)    ENERGY(PROJ) ENERGY CHANGE       GRAD(0)  GRAD(ORB)   GRAD(CI)      STEP      TIME
   1    5    4    0    -40.04331090     -40.05901539   -0.01570448    0.14568469 0.00006930 0.00000000  0.13E+00      0.08
   2    7    6    0    -40.05898672     -40.05898843   -0.00000170    0.00187272 0.00000002 0.00000000  0.10E-02      0.18
   3    3    3    0    -40.05898843     -40.05898843   -0.00000000    0.00000060 0.00000000 0.00000000  0.33E-06      0.24

 CONVERGENCE REACHED!  Final gradient:    0.00000000 ( 0.16E-09)
                       Final energy:    -40.05898843
 
 First order charge density matrix for state 1.1 saved on record 2140.2 (density set 1)
 
 Results for state 1.1
 =====================
 !MCSCF STATE 1.1 Energy                       -40.058988425853
 Nuclear energy                                 10.88304419
 Kinetic energy                                 39.99537120
 One electron energy                           -74.47573842
 Two electron energy                            23.53370581
 Virial ratio                                    2.00159061
 
 !MCSCF STATE 1.1 Dipole moment                 -0.00008026     0.00348670    -0.00230297
 Dipole moment /Debye                           -0.00020399     0.00886231    -0.00585356
 
 No non-zero expectation values
 
 
 Natural orbital dump at molpro section 2140.2 (Orbital set 2)


 **********************************************************************************************************************************
 DATASETS  * FILE   NREC   LENGTH (MB)   RECORD NAMES
              1      20       29.69       500      610      700      900      950      970     1000      129      960     1100   
                                          VAR    BASINP    GEOM    SYMINP    ZMAT    AOBASIS   BASIS     P2S    ABASIS      S 
                                         1400     1410     1200     1210     1080     1600     1650     1300     1700     1380   
                                           T        V       H0       H01     AOSYM     SMH    MOLCAS    ERIS     OPER     JKOP   

              2       4        2.72       700     1000      520     2140   
                                         GEOM     BASIS   MCVARS    MCSCF   

 PROGRAMS   *        TOTAL     MULTI       INT
 CPU TIMES  *         0.61      0.21      0.24
 REAL TIME  *         1.18 SEC
 DISK USED  *        34.01 MB
 **********************************************************************************************************************************


 PROGRAM * RS2 (Multireference RS Perturbation Theory)     Authors: H.-J. Werner (1993), P. Celani (1998)


 Level shift= 0.20

 Convergence thresholds:  THRVAR = 1.00D-08  THRDEN = 1.00D-06

 Number of optimized states: 1  Roots:    1
 Number of reference states: 1  Roots:    1

 Reference symmetry:                   1   Singlet 
 Number of electrons:                 10
 Maximum number of shells:             4
 Maximum number of spin couplings:     5

 Reference space:        3 conf        3 CSFs
 N elec internal:       15 conf       15 CSFs
 N-1 el internal:       23 conf       32 CSFs
 N-2 el internal:       25 conf       52 CSFs

 Number of electrons in valence space:                      8
 Maximum number of open shell orbitals in reference space:  2
 Maximum number of open shell orbitals in internal spaces:  6


 Number of core orbitals:           1 (   1 )
 Number of closed-shell orbitals:   3 (   3 )
 Number of active  orbitals:        2 (   2 )
 Number of external orbitals:      28 (  28 )

 Molecular orbitals read from record     2140.2  Type=MCSCF/NATURAL (state 1.1)

 Integral transformation finished. Total CPU:   0.00 sec, npass=  1  Memory used:   0.11 MW


 Number of p-space configurations:   3

 Reference wavefunction optimized for reference space (refopt=1)

 State     Reference Energy 
     1       -40.05898843

 Number of blocks in overlap matrix:     2   Smallest eigenvalue:  0.10D+01
 Number of N-2 electron functions:      22
 Number of N-1 electron functions:      32

 Number of internal configurations:                   15
 Number of singly external configurations:           896
 Number of doubly external configurations:          8680
 Total number of contracted configurations:         9591
 Total number of uncontracted configurations:      21351

 Weight factors for SA-density in H0:    1.000000

 FIMAX=  0.41D-01  FXMAX=  0.76D-13  DIAG=  F  T  NOREF=1  NOINT=0  IHPPD=2

 Nuclear energy:                      10.88304419
 Core energy:                        -35.57001578
 Zeroth-order valence energy:         -4.36945269
 Zeroth-order total energy:          -29.05642429
 First-order energy:                 -11.00256414

 Using uncontracted singles

 Diagonal Coupling coefficients finished.               Storage:     883 words, CPU-Time:      0.00 seconds.
 Energy denominators for pairs finished in 0 passes.    Storage:    2295 words, CPU-time:      0.00 seconds.

 A level shift of 0.20 is applied.

  ITER. STATE  ROOT     SQ.NORM     CORR.ENERGY   TOTAL ENERGY   ENERGY CHANGE       DEN1      VAR(S)    VAR(P)      TIME
    1     1     1     1.00519947    -0.00103989   -40.06002832    -0.00103989    -0.12594775  0.52D-02  0.36D-01     0.02
    2     1     1     1.04130558    -0.13399309   -40.19298151    -0.13295319     0.00012612  0.16D-04  0.71D-05     0.02
    3     1     1     1.04128318    -0.13402932   -40.19301775    -0.00003623    -0.00002033  0.46D-07  0.49D-07     0.02
    4     1     1     1.04130185    -0.13403322   -40.19302165    -0.00000390     0.00000017  0.65D-09  0.14D-09     0.03
    5     1     1     1.04130189    -0.13403323   -40.19302165    -0.00000001    -0.00000007  0.41D-11  0.26D-11     0.03

 Energies without level shift correction:

    5     1     1     1.04130189    -0.12577285   -40.18476128

 Energy contributions for state 1.1:
 ===================================

            Energy contr.      SQ.Norm of FOWF
 Space I     -0.00000351          0.00000239
 Space S     -0.01129641          0.00511312
 Space P     -0.11447293          0.03618638


 =====================================
 Analysis of CPU times by interactions
 =====================================

       I      S      P

 I   0.0%
 S   0.0%   0.0%
 P   0.0%   0.0%  33.3%

 Initialization:  66.7%
 Other:            0.0%

 Total CPU:        0.0 seconds
 =====================================



 gnormi=  1.00000239  gnorms=  0.00511312  gnormp=  0.03618638  gnorm=  1.04130189
 ecorri= -0.00000351  ecorrs= -0.01129641  ecorrp= -0.11447293  ecorr= -0.13403323

 Reference coefficients greater than 0.0500000
 =============================================
 22220           0.7240558
 22202          -0.6897414


 RESULTS FOR STATE 1.1
 =====================

 Coefficient of reference function:   C(0) = 1.00000000 (fixed)   1.00000000 (relaxed)

 Energy contributions of configuration classes

 CLASS          SQ.NORM        ECORR1        ECORR2
 +++++++++++++++++++++++++++++++++++++++++++++++++++
 Internals    0.00000239   -0.00000351    0.13402575
 Singles      0.00511312   -0.01129641   -0.02407665
 Pairs        0.03618638   -0.11447293   -0.24398233
 Total        1.04130189   -0.12577285   -0.13403323
 +++++++++++++++++++++++++++++++++++++++++++++++++++


 Reference energy                     -40.05898843
 Nuclear energy                        10.88304419
 Kinetic energy                        40.08614939
 One electron energy                  -74.41083842
 Two electron energy                   23.33477258
 Virial quotient                       -1.00266606
 Correlation energy                    -0.13403323
 !RSPT2 STATE 1.1 Energy              -40.193021655000

 Properties without orbital relaxation:

 !RSPT2 STATE 1.1 Dipole moment        -0.00007937     0.00362440    -0.00236113
 Dipole moment /Debye                  -0.00020173     0.00921232    -0.00600138


 **********************************************************************************************************************************
 DATASETS  * FILE   NREC   LENGTH (MB)   RECORD NAMES
              1      20       29.69       500      610      700      900      950      970     1000      129      960     1100   
                                          VAR    BASINP    GEOM    SYMINP    ZMAT    AOBASIS   BASIS     P2S    ABASIS      S 
                                         1400     1410     1200     1210     1080     1600     1650     1300     1700     1380   
                                           T        V       H0       H01     AOSYM     SMH    MOLCAS    ERIS     OPER     JKOP   

              2       4        2.72       700     1000      520     2140   
                                         GEOM     BASIS   MCVARS    MCSCF   

 PROGRAMS   *        TOTAL       RS2     MULTI       INT
 CPU TIMES  *         0.68      0.07      0.21      0.24
 REAL TIME  *         1.33 SEC
 DISK USED  *        34.01 MB
 **********************************************************************************************************************************
 SETTING MOLPRO_ENERGY  =        -0.00015648  AU                              

 RS2/cc-pVDZ energy=    -40.193021655000

             RS2           MULTI
    -40.19302165    -40.05898843
 **********************************************************************************************************************************
 Molpro calculation terminated
