 Entering Gaussian System, Link 0=g09
 Input=geom.com
 Output=geom.log
 Initial command:
 /software/cinetica/g09d1/g09d01/d01/build-node-6-2-59348/src/main/l1.exe "/scratch/cc/138604/Gau-22518.inp" -scrdir="/scratch/cc/138604/"
 Entering Link 1 = /software/cinetica/g09d1/g09d01/d01/build-node-6-2-59348/src/main/l1.exe PID=     22519.
  
 Copyright (c) 1988,1990,1992,1993,1995,1998,2003,2009,2013,
            Gaussian, Inc.  All Rights Reserved.
  
 This is part of the Gaussian(R) 09 program.  It is based on
 the Gaussian(R) 03 system (copyright 2003, Gaussian, Inc.),
 the Gaussian(R) 98 system (copyright 1998, Gaussian, Inc.),
 the Gaussian(R) 94 system (copyright 1995, Gaussian, Inc.),
 the Gaussian 92(TM) system (copyright 1992, Gaussian, Inc.),
 the Gaussian 90(TM) system (copyright 1990, Gaussian, Inc.),
 the Gaussian 88(TM) system (copyright 1988, Gaussian, Inc.),
 the Gaussian 86(TM) system (copyright 1986, Carnegie Mellon
 University), and the Gaussian 82(TM) system (copyright 1983,
 Carnegie Mellon University). Gaussian is a federally registered
 trademark of Gaussian, Inc.
  
 This software contains proprietary and confidential information,
 including trade secrets, belonging to Gaussian, Inc.
  
 This software is provided under written license and may be
 used, copied, transmitted, or stored only in accord with that
 written license.
  
 The following legend is applicable only to US Government
 contracts under FAR:
  
                    RESTRICTED RIGHTS LEGEND
  
 Use, reproduction and disclosure by the US Government is
 subject to restrictions as set forth in subparagraphs (a)
 and (c) of the Commercial Computer Software - Restricted
 Rights clause in FAR 52.227-19.
  
 Gaussian, Inc.
 340 Quinnipiac St., Bldg. 40, Wallingford CT 06492
  
  
 ---------------------------------------------------------------
 Warning -- This program may not be used in any manner that
 competes with the business of Gaussian, Inc. or will provide
 assistance to any competitor of Gaussian, Inc.  The licensee
 of this program is prohibited from giving any competitor of
 Gaussian, Inc. access to this program.  By using this program,
 the user acknowledges that Gaussian, Inc. is engaged in the
 business of creating and licensing software in the field of
 computational chemistry and represents and warrants to the
 licensee that it is not a competitor of Gaussian, Inc. and that
 it will not use this program in any manner prohibited above.
 ---------------------------------------------------------------
  

 Cite this work as:
 Gaussian 09, Revision D.01,
 M. J. Frisch, G. W. Trucks, H. B. Schlegel, G. E. Scuseria, 
 M. A. Robb, J. R. Cheeseman, G. Scalmani, V. Barone, B. Mennucci, 
 G. A. Petersson, H. Nakatsuji, M. Caricato, X. Li, H. P. Hratchian, 
 A. F. Izmaylov, J. Bloino, G. Zheng, J. L. Sonnenberg, M. Hada, 
 M. Ehara, K. Toyota, R. Fukuda, J. Hasegawa, M. Ishida, T. Nakajima, 
 Y. Honda, O. Kitao, H. Nakai, T. Vreven, J. A. Montgomery, Jr., 
 J. E. Peralta, F. Ogliaro, M. Bearpark, J. J. Heyd, E. Brothers, 
 K. N. Kudin, V. N. Staroverov, T. Keith, R. Kobayashi, J. Normand, 
 K. Raghavachari, A. Rendell, J. C. Burant, S. S. Iyengar, J. Tomasi, 
 M. Cossi, N. Rega, J. M. Millam, M. Klene, J. E. Knox, J. B. Cross, 
 V. Bakken, C. Adamo, J. Jaramillo, R. Gomperts, R. E. Stratmann, 
 O. Yazyev, A. J. Austin, R. Cammi, C. Pomelli, J. W. Ochterski, 
 R. L. Martin, K. Morokuma, V. G. Zakrzewski, G. A. Voth, 
 P. Salvador, J. J. Dannenberg, S. Dapprich, A. D. Daniels, 
 O. Farkas, J. B. Foresman, J. V. Ortiz, J. Cioslowski, 
 and D. J. Fox, Gaussian, Inc., Wallingford CT, 2013.
 
 ******************************************
 Gaussian 09:  EM64L-G09RevD.01 24-Apr-2013
                24-May-2023 
 ******************************************
 %mem=400MW
 %chk=tmp
 %NProcShared= 16
 Will use up to   16 processors via shared memory.
 ----------------------------------------------------------------------
 #UWB97XD/AUG-CC-PVTZ #opt(calcfc,maxcyc=1) iop(7/33=1) guess=read geom
 =check int=ultra
 ----------------------------------------------------------------------
 1/6=1,10=4,14=-1,18=20,19=15,26=4,29=2,38=1/1,3;
 2/9=110,12=2,40=1/2;
 3/5=16,6=1,7=10,11=2,14=-4,16=1,25=1,30=1,71=2,74=-58,75=-5,116=2,140=1/1,2,3;
 4/5=1/1;
 5/5=2,38=6/2;
 8/6=4,10=90,11=11/1;
 11/6=1,8=1,9=11,15=111,16=1/1,2,10;
 10/6=1,13=1/2;
 6/7=2,8=2,9=2,10=2,28=1/1;
 7/10=1,18=20,25=1,33=1/1,2,3,16;
 1/6=1,10=4,14=-1,18=20,19=15,26=4/3(2);
 2/9=110/2;
 99//99;
 2/9=110/2;
 3/5=16,6=1,7=10,11=2,14=-2,16=1,25=1,30=1,71=1,74=-58,75=-5,116=2/1,2,3;
 4/5=5,16=3,69=1/1;
 5/5=2,38=5/2;
 7/33=1/1,2,3,16;
 1/6=1,14=-1,18=20,19=15,26=4/3(-5);
 2/9=110/2;
 6/7=2,8=2,9=2,10=2,19=2,28=1/1;
 99/9=1/99;
 ------
 geom 0
 ------
 Structure from the checkpoint file:  "tmp.chk"
 Charge =  0 Multiplicity = 1
 Z-Matrix found in file.
 C
 H,1,R1
 H,1,R2,2,A2
 H,1,R3,2,A3,3,D3,0
 C,1,BB,2,ANG1,3,DH1,0
 H,5,R21,1,ANG2,2,DH2,0
 H,5,R22,6,A22,1,DH3,0
 H,5,R23,6,A23,7,D23,0
      Variables:
 R1=1.09024633
 R2=1.09025856
 R3=1.09026663
 A2=107.62938929
 A3=107.62783657
 D3=244.26186171
 R21=1.09024115
 R22=1.09025703
 R23=1.09025433
 A22=107.62860724
 A23=107.63216174
 D23=115.74705946
 BB=1.52287642
 ANG1=111.26153401
 DH1=122.13384697
 ANG2=111.25749536
 DH3=122.12819826
 DH2=60.06222297
 Recover connectivity data from disk.

 GradGradGradGradGradGradGradGradGradGradGradGradGradGradGradGradGradGrad
 Berny optimization.
 Initialization pass.
                           ----------------------------
                           !    Initial Parameters    !
                           ! (Angstroms and Degrees)  !
 --------------------------                            --------------------------
 ! Name  Definition              Value          Derivative Info.                !
 --------------------------------------------------------------------------------
 ! R1    R(1,2)                  1.0902         calculate D2E/DX2 analytically  !
 ! R2    R(1,3)                  1.0903         calculate D2E/DX2 analytically  !
 ! R3    R(1,4)                  1.0903         calculate D2E/DX2 analytically  !
 ! R4    R(1,5)                  1.5229         calculate D2E/DX2 analytically  !
 ! R5    R(5,6)                  1.0902         calculate D2E/DX2 analytically  !
 ! R6    R(5,7)                  1.0903         calculate D2E/DX2 analytically  !
 ! R7    R(5,8)                  1.0903         calculate D2E/DX2 analytically  !
 ! A1    A(2,1,3)              107.6294         calculate D2E/DX2 analytically  !
 ! A2    A(2,1,4)              107.6278         calculate D2E/DX2 analytically  !
 ! A3    A(2,1,5)              111.2615         calculate D2E/DX2 analytically  !
 ! A4    A(3,1,4)              107.6207         calculate D2E/DX2 analytically  !
 ! A5    A(3,1,5)              111.2594         calculate D2E/DX2 analytically  !
 ! A6    A(4,1,5)              111.2555         calculate D2E/DX2 analytically  !
 ! A7    A(1,5,6)              111.2575         calculate D2E/DX2 analytically  !
 ! A8    A(1,5,7)              111.2573         calculate D2E/DX2 analytically  !
 ! A9    A(1,5,8)              111.2526         calculate D2E/DX2 analytically  !
 ! A10   A(6,5,7)              107.6286         calculate D2E/DX2 analytically  !
 ! A11   A(6,5,8)              107.6322         calculate D2E/DX2 analytically  !
 ! A12   A(7,5,8)              107.6269         calculate D2E/DX2 analytically  !
 ! D1    D(2,1,5,6)             60.0622         calculate D2E/DX2 analytically  !
 ! D2    D(2,1,5,7)            -59.9392         calculate D2E/DX2 analytically  !
 ! D3    D(2,1,5,8)           -179.935          calculate D2E/DX2 analytically  !
 ! D4    D(3,1,5,6)           -179.9312         calculate D2E/DX2 analytically  !
 ! D5    D(3,1,5,7)             60.0674         calculate D2E/DX2 analytically  !
 ! D6    D(3,1,5,8)            -59.9285         calculate D2E/DX2 analytically  !
 ! D7    D(4,1,5,6)            -59.9397         calculate D2E/DX2 analytically  !
 ! D8    D(4,1,5,7)           -179.9411         calculate D2E/DX2 analytically  !
 ! D9    D(4,1,5,8)             60.063          calculate D2E/DX2 analytically  !
 --------------------------------------------------------------------------------
 Trust Radius=3.00D-01 FncErr=1.00D-07 GrdErr=1.00D-06
 Number of steps in this run=      1 maximum allowed number of steps=    100.
 GradGradGradGradGradGradGradGradGradGradGradGradGradGradGradGradGradGrad

                          Input orientation:                          
 ---------------------------------------------------------------------
 Center     Atomic      Atomic             Coordinates (Angstroms)
 Number     Number       Type             X           Y           Z
 ---------------------------------------------------------------------
      1          6           0        0.000000    0.000000    0.000000
      2          1           0        0.000000    0.000000    1.090246
      3          1           0        1.039055    0.000000   -0.330194
      4          1           0       -0.451226    0.935983   -0.330169
      5          6           0       -0.754882   -1.201808   -0.552234
      6          1           0       -1.794227   -1.201129   -0.223011
      7          1           0       -0.304300   -2.137800   -0.221243
      8          1           0       -0.753816   -1.202277   -1.642488
 ---------------------------------------------------------------------
                    Distance matrix (angstroms):
                    1          2          3          4          5
     1  C    0.000000
     2  H    1.090246   0.000000
     3  H    1.090259   1.759911   0.000000
     4  H    1.090267   1.759900   1.759830   0.000000
     5  C    1.522876   2.170698   2.170681   2.170639   0.000000
     6  H    2.170644   2.527174   3.079235   2.526338   1.090241
     7  H    2.170653   2.526419   2.527185   3.079220   1.090257
     8  H    2.170593   3.079212   2.526256   2.527034   1.090254
                    6          7          8
     6  H    0.000000
     7  H    1.759897   0.000000
     8  H    1.759935   1.759888   0.000000
 Stoichiometry    C2H6
 Framework group  C1[X(C2H6)]
 Deg. of freedom    18
 Full point group                 C1      NOp   1
 Largest Abelian subgroup         C1      NOp   1
 Largest concise Abelian subgroup C1      NOp   1
                         Standard orientation:                         
 ---------------------------------------------------------------------
 Center     Atomic      Atomic             Coordinates (Angstroms)
 Number     Number       Type             X           Y           Z
 ---------------------------------------------------------------------
      1          6           0        0.761429   -0.000020   -0.000012
      2          1           0        1.156767   -0.983324   -0.255861
      3          1           0        1.156745    0.713294   -0.723595
      4          1           0        1.156695    0.270108    0.979517
      5          6           0       -0.761448   -0.000005    0.000006
      6          1           0       -1.156723   -0.712449    0.724442
      7          1           0       -1.156742   -0.271134   -0.979224
      8          1           0       -1.156630    0.983655    0.254758
 ---------------------------------------------------------------------
 Rotational constants (GHZ):     80.9523142     20.1129536     20.1127593
 Standard basis: Aug-CC-pVTZ (5D, 7F)
 There are   260 symmetry adapted cartesian basis functions of A   symmetry.
 There are   230 symmetry adapted basis functions of A   symmetry.
   230 basis functions,   306 primitive gaussians,   260 cartesian basis functions
     9 alpha electrons        9 beta electrons
       nuclear repulsion energy        42.3354265128 Hartrees.
 NAtoms=    8 NActive=    8 NUniq=    8 SFac= 1.00D+00 NAtFMM=   60 NAOKFM=F Big=F
 Integral buffers will be    131072 words long.
 Raffenetti 2 integral format.
 Two-electron integral symmetry is turned on.
 Nuclear repulsion after empirical dispersion term =       42.3335661677 Hartrees.
 One-electron integrals computed using PRISM.
 NBasis=   230 RedAO= T EigKep=  2.79D-05  NBF=   230
 NBsUse=   230 1.00D-06 EigRej= -1.00D+00 NBFU=   230
 Initial guess from the checkpoint file:  "tmp.chk"
 B after Tr=     1.438892   -0.000038   -0.000023
         Rot=   -0.596711    0.625924    0.474926   -0.163097 Ang= 253.27 deg.
 Initial guess <Sx>= 0.0000 <Sy>= 0.0000 <Sz>= 0.0000 <S**2>= 0.0000 S= 0.0000
 Requested convergence on RMS density matrix=1.00D-08 within 128 cycles.
 Requested convergence on MAX density matrix=1.00D-06.
 Requested convergence on             energy=1.00D-06.
 No special actions if energy rises.
 SCF Done:  E(UwB97XD) =  -79.8332128739     A.U. after    3 cycles
            NFock=  3  Conv=0.33D-08     -V/T= 2.0071
 <Sx>= 0.0000 <Sy>= 0.0000 <Sz>= 0.0000 <S**2>=-0.0000 S=-0.0000
 <L.S>=  0.00000000000    
 Annihilation of the first spin contaminant:
 S**2 before annihilation    -0.0000,   after    -0.0000
 DoSCS=F DFT=T ScalE2(SS,OS)=  1.000000  1.000000
 Range of M.O.s used for correlation:     1   230
 NBasis=   230 NAE=     9 NBE=     9 NFC=     0 NFV=     0
 NROrb=    230 NOA=     9 NOB=     9 NVA=   221 NVB=   221

 **** Warning!!: The largest alpha MO coefficient is  0.58264420D+02


 **** Warning!!: The largest beta MO coefficient is  0.58264420D+02

 Symmetrizing basis deriv contribution to polar:
 IMax=3 JMax=2 DiffMx= 0.00D+00
 G2DrvN: will do     9 centers at a time, making    1 passes.
 Calling FoFCou, ICntrl=  3107 FMM=F I1Cent=   0 AccDes= 0.00D+00.
 End of G2Drv F.D. properties file   721 does not exist.
 End of G2Drv F.D. properties file   722 does not exist.
 End of G2Drv F.D. properties file   788 does not exist.
          IDoAtm=11111111
          Differentiating once with respect to nuclear coordinates.
          There are    27 degrees of freedom in the 1st order CPHF.  IDoFFX=6 NUNeed=     0.
     21 vectors produced by pass  0 Test12= 1.47D-14 3.70D-09 XBig12= 8.79D-02 4.40D-02.
 AX will form    21 AO Fock derivatives at one time.
     21 vectors produced by pass  1 Test12= 1.47D-14 3.70D-09 XBig12= 2.51D-03 1.11D-02.
     21 vectors produced by pass  2 Test12= 1.47D-14 3.70D-09 XBig12= 7.13D-05 1.37D-03.
     21 vectors produced by pass  3 Test12= 1.47D-14 3.70D-09 XBig12= 6.88D-07 1.57D-04.
     21 vectors produced by pass  4 Test12= 1.47D-14 3.70D-09 XBig12= 4.45D-09 1.03D-05.
     21 vectors produced by pass  5 Test12= 1.47D-14 3.70D-09 XBig12= 2.94D-11 1.38D-06.
     16 vectors produced by pass  6 Test12= 1.47D-14 3.70D-09 XBig12= 2.66D-13 1.23D-07.
      2 vectors produced by pass  7 Test12= 1.47D-14 3.70D-09 XBig12= 2.92D-15 1.29D-08.
 InvSVY:  IOpt=1 It=  1 EMax= 1.33D-15
 Solved reduced A of dimension   144 with    21 vectors.
 End of Minotr F.D. properties file   721 does not exist.
 End of Minotr F.D. properties file   722 does not exist.
 End of Minotr F.D. properties file   788 does not exist.

 **********************************************************************

            Population analysis using the SCF density.

 **********************************************************************

 Orbital symmetries:
 Alpha Orbitals:
       Occupied  (A) (A) (A) (A) (A) (A) (A) (A) (A)
       Virtual   (A) (A) (A) (A) (A) (A) (A) (A) (A) (A) (A) (A)
                 (A) (A) (A) (A) (A) (A) (A) (A) (A) (A) (A) (A)
                 (A) (A) (A) (A) (A) (A) (A) (A) (A) (A) (A) (A)
                 (A) (A) (A) (A) (A) (A) (A) (A) (A) (A) (A) (A)
                 (A) (A) (A) (A) (A) (A) (A) (A) (A) (A) (A) (A)
                 (A) (A) (A) (A) (A) (A) (A) (A) (A) (A) (A) (A)
                 (A) (A) (A) (A) (A) (A) (A) (A) (A) (A) (A) (A)
                 (A) (A) (A) (A) (A) (A) (A) (A) (A) (A) (A) (A)
                 (A) (A) (A) (A) (A) (A) (A) (A) (A) (A) (A) (A)
                 (A) (A) (A) (A) (A) (A) (A) (A) (A) (A) (A) (A)
                 (A) (A) (A) (A) (A) (A) (A) (A) (A) (A) (A) (A)
                 (A) (A) (A) (A) (A) (A) (A) (A) (A) (A) (A) (A)
                 (A) (A) (A) (A) (A) (A) (A) (A) (A) (A) (A) (A)
                 (A) (A) (A) (A) (A) (A) (A) (A) (A) (A) (A) (A)
                 (A) (A) (A) (A) (A) (A) (A) (A) (A) (A) (A) (A)
                 (A) (A) (A) (A) (A) (A) (A) (A) (A) (A) (A) (A)
                 (A) (A) (A) (A) (A) (A) (A) (A) (A) (A) (A) (A)
                 (A) (A) (A) (A) (A) (A) (A) (A) (A) (A) (A) (A)
                 (A) (A) (A) (A) (A)
 Beta  Orbitals:
       Occupied  (A) (A) (A) (A) (A) (A) (A) (A) (A)
       Virtual   (A) (A) (A) (A) (A) (A) (A) (A) (A) (A) (A) (A)
                 (A) (A) (A) (A) (A) (A) (A) (A) (A) (A) (A) (A)
                 (A) (A) (A) (A) (A) (A) (A) (A) (A) (A) (A) (A)
                 (A) (A) (A) (A) (A) (A) (A) (A) (A) (A) (A) (A)
                 (A) (A) (A) (A) (A) (A) (A) (A) (A) (A) (A) (A)
                 (A) (A) (A) (A) (A) (A) (A) (A) (A) (A) (A) (A)
                 (A) (A) (A) (A) (A) (A) (A) (A) (A) (A) (A) (A)
                 (A) (A) (A) (A) (A) (A) (A) (A) (A) (A) (A) (A)
                 (A) (A) (A) (A) (A) (A) (A) (A) (A) (A) (A) (A)
                 (A) (A) (A) (A) (A) (A) (A) (A) (A) (A) (A) (A)
                 (A) (A) (A) (A) (A) (A) (A) (A) (A) (A) (A) (A)
                 (A) (A) (A) (A) (A) (A) (A) (A) (A) (A) (A) (A)
                 (A) (A) (A) (A) (A) (A) (A) (A) (A) (A) (A) (A)
                 (A) (A) (A) (A) (A) (A) (A) (A) (A) (A) (A) (A)
                 (A) (A) (A) (A) (A) (A) (A) (A) (A) (A) (A) (A)
                 (A) (A) (A) (A) (A) (A) (A) (A) (A) (A) (A) (A)
                 (A) (A) (A) (A) (A) (A) (A) (A) (A) (A) (A) (A)
                 (A) (A) (A) (A) (A) (A) (A) (A) (A) (A) (A) (A)
                 (A) (A) (A) (A) (A)
 The electronic state is 1-A.
 Alpha  occ. eigenvalues --  -10.26996 -10.26973  -0.85233  -0.70995  -0.52154
 Alpha  occ. eigenvalues --   -0.52152  -0.45072  -0.42385  -0.42384
 Alpha virt. eigenvalues --    0.03411   0.04499   0.04629   0.04629   0.07085
 Alpha virt. eigenvalues --    0.07085   0.10391   0.12315   0.12322   0.12322
 Alpha virt. eigenvalues --    0.13327   0.14225   0.14225   0.17685   0.20255
 Alpha virt. eigenvalues --    0.20255   0.22098   0.22099   0.27230   0.27231
 Alpha virt. eigenvalues --    0.27395   0.27872   0.31111   0.31111   0.31850
 Alpha virt. eigenvalues --    0.33021   0.34830   0.34830   0.35046   0.38959
 Alpha virt. eigenvalues --    0.38959   0.38970   0.38971   0.39015   0.40436
 Alpha virt. eigenvalues --    0.40448   0.41546   0.41546   0.45258   0.45974
 Alpha virt. eigenvalues --    0.45975   0.45979   0.48119   0.48119   0.50252
 Alpha virt. eigenvalues --    0.51049   0.51049   0.53454   0.53455   0.64419
 Alpha virt. eigenvalues --    0.71362   0.71362   0.71982   0.73693   0.74655
 Alpha virt. eigenvalues --    0.74656   0.77740   0.77740   0.80713   0.80714
 Alpha virt. eigenvalues --    0.81539   0.81617   0.87463   0.88470   0.88471
 Alpha virt. eigenvalues --    0.89039   0.90349   0.93556   0.93558   0.94546
 Alpha virt. eigenvalues --    0.94547   0.97594   0.98068   1.01956   1.01957
 Alpha virt. eigenvalues --    1.04724   1.04724   1.05729   1.08781   1.08781
 Alpha virt. eigenvalues --    1.10307   1.10308   1.13453   1.18422   1.18423
 Alpha virt. eigenvalues --    1.19869   1.19871   1.21812   1.21814   1.24337
 Alpha virt. eigenvalues --    1.25073   1.33608   1.33608   1.34390   1.35864
 Alpha virt. eigenvalues --    1.35864   1.46280   1.50992   1.50993   1.51858
 Alpha virt. eigenvalues --    1.53196   1.53759   1.53963   1.53964   1.58751
 Alpha virt. eigenvalues --    1.58753   1.58899   1.61054   1.63030   1.67973
 Alpha virt. eigenvalues --    1.67973   1.73381   1.73415   1.73416   1.73533
 Alpha virt. eigenvalues --    1.80540   1.80542   1.86297   1.88476   1.88477
 Alpha virt. eigenvalues --    1.92785   1.92786   2.07624   2.07628   2.07728
 Alpha virt. eigenvalues --    2.09616   2.09617   2.14065   2.14066   2.19518
 Alpha virt. eigenvalues --    2.24892   2.24893   2.25875   2.45482   2.63926
 Alpha virt. eigenvalues --    2.89338   2.92790   3.06005   3.10271   3.10272
 Alpha virt. eigenvalues --    3.16273   3.16277   3.29451   3.29452   3.33634
 Alpha virt. eigenvalues --    3.33634   3.35400   3.42539   3.46137   3.47042
 Alpha virt. eigenvalues --    3.47044   3.48495   3.51598   3.51598   3.54512
 Alpha virt. eigenvalues --    3.58442   3.58444   3.69841   3.69845   3.71093
 Alpha virt. eigenvalues --    3.71094   3.74685   3.74686   3.87538   3.87883
 Alpha virt. eigenvalues --    3.94460   3.94462   3.96683   3.96683   3.97712
 Alpha virt. eigenvalues --    3.98503   3.98505   4.23587   4.25206   4.27850
 Alpha virt. eigenvalues --    4.27852   4.38682   4.40914   4.40917   4.51368
 Alpha virt. eigenvalues --    4.54119   4.54122   4.57199   4.57200   4.58617
 Alpha virt. eigenvalues --    4.58619   4.66972   4.68253   4.73425   4.77332
 Alpha virt. eigenvalues --    4.87614   4.87615   4.90626   4.90628   5.07264
 Alpha virt. eigenvalues --    5.07264   5.12124   5.14102   5.17771   5.20375
 Alpha virt. eigenvalues --    5.22507   5.22517   5.41075   5.41079   5.50770
 Alpha virt. eigenvalues --    5.52530   5.64922   5.64928   5.69082   5.78360
 Alpha virt. eigenvalues --    5.90736   5.90741   5.97224   5.98148   5.98151
 Alpha virt. eigenvalues --    6.39759   6.39763   6.51883   6.51888  16.65503
 Alpha virt. eigenvalues --   17.20411
  Beta  occ. eigenvalues --  -10.26996 -10.26973  -0.85233  -0.70995  -0.52154
  Beta  occ. eigenvalues --   -0.52152  -0.45072  -0.42385  -0.42384
  Beta virt. eigenvalues --    0.03411   0.04499   0.04629   0.04629   0.07085
  Beta virt. eigenvalues --    0.07085   0.10391   0.12315   0.12322   0.12322
  Beta virt. eigenvalues --    0.13327   0.14225   0.14225   0.17685   0.20255
  Beta virt. eigenvalues --    0.20255   0.22098   0.22099   0.27230   0.27231
  Beta virt. eigenvalues --    0.27395   0.27872   0.31111   0.31111   0.31850
  Beta virt. eigenvalues --    0.33021   0.34830   0.34830   0.35046   0.38959
  Beta virt. eigenvalues --    0.38959   0.38970   0.38971   0.39015   0.40436
  Beta virt. eigenvalues --    0.40448   0.41546   0.41546   0.45258   0.45974
  Beta virt. eigenvalues --    0.45975   0.45979   0.48119   0.48119   0.50252
  Beta virt. eigenvalues --    0.51049   0.51049   0.53454   0.53455   0.64419
  Beta virt. eigenvalues --    0.71362   0.71362   0.71982   0.73693   0.74655
  Beta virt. eigenvalues --    0.74656   0.77740   0.77740   0.80713   0.80714
  Beta virt. eigenvalues --    0.81539   0.81617   0.87463   0.88470   0.88471
  Beta virt. eigenvalues --    0.89039   0.90349   0.93556   0.93558   0.94546
  Beta virt. eigenvalues --    0.94547   0.97594   0.98068   1.01956   1.01957
  Beta virt. eigenvalues --    1.04724   1.04724   1.05729   1.08781   1.08781
  Beta virt. eigenvalues --    1.10307   1.10308   1.13453   1.18422   1.18423
  Beta virt. eigenvalues --    1.19869   1.19871   1.21812   1.21814   1.24337
  Beta virt. eigenvalues --    1.25073   1.33608   1.33608   1.34390   1.35864
  Beta virt. eigenvalues --    1.35864   1.46280   1.50992   1.50993   1.51858
  Beta virt. eigenvalues --    1.53196   1.53759   1.53963   1.53964   1.58751
  Beta virt. eigenvalues --    1.58753   1.58899   1.61054   1.63030   1.67973
  Beta virt. eigenvalues --    1.67973   1.73381   1.73415   1.73416   1.73533
  Beta virt. eigenvalues --    1.80540   1.80542   1.86297   1.88476   1.88477
  Beta virt. eigenvalues --    1.92785   1.92786   2.07624   2.07628   2.07728
  Beta virt. eigenvalues --    2.09616   2.09617   2.14065   2.14066   2.19518
  Beta virt. eigenvalues --    2.24892   2.24893   2.25875   2.45482   2.63926
  Beta virt. eigenvalues --    2.89338   2.92790   3.06005   3.10271   3.10272
  Beta virt. eigenvalues --    3.16273   3.16277   3.29451   3.29452   3.33634
  Beta virt. eigenvalues --    3.33634   3.35400   3.42539   3.46137   3.47042
  Beta virt. eigenvalues --    3.47044   3.48495   3.51598   3.51598   3.54512
  Beta virt. eigenvalues --    3.58442   3.58444   3.69841   3.69845   3.71093
  Beta virt. eigenvalues --    3.71094   3.74685   3.74686   3.87538   3.87883
  Beta virt. eigenvalues --    3.94460   3.94462   3.96683   3.96683   3.97712
  Beta virt. eigenvalues --    3.98503   3.98505   4.23587   4.25206   4.27850
  Beta virt. eigenvalues --    4.27852   4.38682   4.40914   4.40917   4.51368
  Beta virt. eigenvalues --    4.54119   4.54122   4.57199   4.57200   4.58617
  Beta virt. eigenvalues --    4.58619   4.66972   4.68253   4.73425   4.77332
  Beta virt. eigenvalues --    4.87614   4.87615   4.90626   4.90628   5.07264
  Beta virt. eigenvalues --    5.07264   5.12124   5.14102   5.17771   5.20375
  Beta virt. eigenvalues --    5.22507   5.22517   5.41075   5.41079   5.50770
  Beta virt. eigenvalues --    5.52530   5.64922   5.64928   5.69082   5.78360
  Beta virt. eigenvalues --    5.90736   5.90741   5.97224   5.98148   5.98151
  Beta virt. eigenvalues --    6.39759   6.39763   6.51883   6.51888  16.65503
  Beta virt. eigenvalues --   17.20411
          Condensed to atoms (all electrons):
               1          2          3          4          5          6
     1  C    5.478023   0.400433   0.400500   0.400421   0.118971  -0.009068
     2  H    0.400433   0.335454   0.007933   0.007938  -0.009066   0.000441
     3  H    0.400500   0.007933   0.335634   0.007931  -0.009069  -0.000710
     4  H    0.400421   0.007938   0.007931   0.335460  -0.009053   0.000447
     5  C    0.118971  -0.009066  -0.009069  -0.009053   5.477954   0.400511
     6  H   -0.009068   0.000441  -0.000710   0.000447   0.400511   0.335637
     7  H   -0.009059   0.000447   0.000441  -0.000710   0.400433   0.007933
     8  H   -0.009051  -0.000710   0.000448   0.000443   0.400419   0.007929
               7          8
     1  C   -0.009059  -0.009051
     2  H    0.000447  -0.000710
     3  H    0.000441   0.000448
     4  H   -0.000710   0.000443
     5  C    0.400433   0.400419
     6  H    0.007933   0.007929
     7  H    0.335467   0.007937
     8  H    0.007937   0.335453
          Atomic-Atomic Spin Densities.
               1          2          3          4          5          6
     1  C    0.000000   0.000000  -0.000000  -0.000000  -0.000000  -0.000000
     2  H    0.000000   0.000000  -0.000000  -0.000000   0.000000   0.000000
     3  H   -0.000000  -0.000000  -0.000000   0.000000  -0.000000  -0.000000
     4  H   -0.000000  -0.000000   0.000000   0.000000   0.000000   0.000000
     5  C   -0.000000   0.000000  -0.000000   0.000000   0.000000  -0.000000
     6  H   -0.000000   0.000000  -0.000000   0.000000  -0.000000  -0.000000
     7  H   -0.000000   0.000000   0.000000  -0.000000   0.000000   0.000000
     8  H    0.000000   0.000000   0.000000   0.000000   0.000000   0.000000
               7          8
     1  C   -0.000000   0.000000
     2  H    0.000000   0.000000
     3  H    0.000000   0.000000
     4  H   -0.000000   0.000000
     5  C    0.000000   0.000000
     6  H    0.000000   0.000000
     7  H   -0.000000   0.000000
     8  H    0.000000  -0.000000
 Mulliken charges and spin densities:
               1          2
     1  C   -0.771170  -0.000000
     2  H    0.257130   0.000000
     3  H    0.256893  -0.000000
     4  H    0.257122   0.000000
     5  C   -0.771100   0.000000
     6  H    0.256880  -0.000000
     7  H    0.257112   0.000000
     8  H    0.257133   0.000000
 Sum of Mulliken charges =  -0.00000   0.00000
 Mulliken charges and spin densities with hydrogens summed into heavy atoms:
               1          2
     1  C   -0.000025  -0.000000
     5  C    0.000025   0.000000
 APT charges:
               1
     1  C   -1.310624
     2  H    0.436941
     3  H    0.436761
     4  H    0.436924
     5  C   -1.310613
     6  H    0.436754
     7  H    0.436925
     8  H    0.436931
 Sum of APT charges =  -0.00000
 APT charges with hydrogens summed into heavy atoms:
               1
     1  C    0.000003
     5  C   -0.000003
 Electronic spatial extent (au):  <R**2>=            109.1797
 Charge=             -0.0000 electrons
 Dipole moment (field-independent basis, Debye):
    X=              0.0000    Y=              0.0000    Z=              0.0000  Tot=              0.0000
 Quadrupole moment (field-independent basis, Debye-Ang):
   XX=            -15.5194   YY=            -14.7996   ZZ=            -14.8001
   XY=              0.0001   XZ=             -0.0000   YZ=             -0.0000
 Traceless Quadrupole moment (field-independent basis, Debye-Ang):
   XX=             -0.4797   YY=              0.2401   ZZ=              0.2396
   XY=              0.0001   XZ=             -0.0000   YZ=             -0.0000
 Octapole moment (field-independent basis, Debye-Ang**2):
  XXX=              0.0003  YYY=              0.0015  ZZZ=              0.0014  XYY=              0.0001
  XXY=             -0.0001  XXZ=             -0.0002  XZZ=             -0.0003  YZZ=             -0.0014
  YYZ=             -0.0013  XYZ=              0.0002
 Hexadecapole moment (field-independent basis, Debye-Ang**3):
 XXXX=            -95.1708 YYYY=            -29.7504 ZZZZ=            -29.7505 XXXY=              0.0004
 XXXZ=             -0.0002 YYYX=             -1.0552 YYYZ=             -0.0001 ZZZX=              1.0070
 ZZZY=              0.0000 XXYY=            -19.6835 XXZZ=            -19.6839 YYZZ=             -9.9169
 XXYZ=             -0.0001 YYXZ=             -1.0071 ZZXY=              1.0553
 N-N= 4.233356616774D+01 E-N=-2.688094197480D+02  KE= 7.926916814187D+01
  Exact polarizability:   0.000   0.000   0.000   0.000   0.000   0.000
 Approx polarizability:  28.448   0.000  28.055   0.000   0.000  28.055
                          Isotropic Fermi Contact Couplings
        Atom                 a.u.       MegaHertz       Gauss      10(-4) cm-1
     1  C(13)             -0.00000      -0.00000      -0.00000      -0.00000
     2  H(1)               0.00000       0.00000       0.00000       0.00000
     3  H(1)               0.00000       0.00000       0.00000       0.00000
     4  H(1)              -0.00000      -0.00000      -0.00000      -0.00000
     5  C(13)             -0.00000      -0.00000      -0.00000      -0.00000
     6  H(1)               0.00000       0.00000       0.00000       0.00000
     7  H(1)               0.00000       0.00000       0.00000       0.00000
     8  H(1)               0.00000       0.00000       0.00000       0.00000
 --------------------------------------------------------
       Center         ----  Spin Dipole Couplings  ----
                      3XX-RR        3YY-RR        3ZZ-RR
 --------------------------------------------------------
     1   Atom        0.000000     -0.000000      0.000000
     2   Atom       -0.000000     -0.000000      0.000000
     3   Atom       -0.000000      0.000000     -0.000000
     4   Atom       -0.000000      0.000000     -0.000000
     5   Atom        0.000000     -0.000000     -0.000000
     6   Atom        0.000000     -0.000000     -0.000000
     7   Atom       -0.000000      0.000000      0.000000
     8   Atom       -0.000000      0.000000     -0.000000
 --------------------------------------------------------
                        XY            XZ            YZ
 --------------------------------------------------------
     1   Atom        0.000000     -0.000000     -0.000000
     2   Atom        0.000000      0.000000     -0.000000
     3   Atom        0.000000     -0.000000     -0.000000
     4   Atom       -0.000000     -0.000000     -0.000000
     5   Atom        0.000000     -0.000000     -0.000000
     6   Atom       -0.000000      0.000000      0.000000
     7   Atom        0.000000     -0.000000      0.000000
     8   Atom        0.000000      0.000000      0.000000
 --------------------------------------------------------


 ---------------------------------------------------------------------------------
              Anisotropic Spin Dipole Couplings in Principal Axis System
 ---------------------------------------------------------------------------------

       Atom             a.u.   MegaHertz   Gauss  10(-4) cm-1        Axes

              Baa    -0.0000    -0.000    -0.000    -0.000 -0.3224  0.8520  0.4125
     1 C(13)  Bbb     0.0000     0.000     0.000     0.000  0.8138  0.0269  0.5805
              Bcc     0.0000     0.000     0.000     0.000 -0.4835 -0.5228  0.7021
 
              Baa    -0.0000    -0.000    -0.000    -0.000 -0.5629  0.7641  0.3150
     2 H(1)   Bbb     0.0000     0.000     0.000     0.000  0.7738  0.3533  0.5258
              Bcc     0.0000     0.000     0.000     0.000 -0.2905 -0.5397  0.7901
 
              Baa    -0.0000    -0.000    -0.000    -0.000  0.7221 -0.0352  0.6909
     3 H(1)   Bbb    -0.0000    -0.000    -0.000    -0.000 -0.5948  0.4784  0.6460
              Bcc     0.0000     0.000     0.000     0.000  0.3533  0.8774 -0.3245
 
              Baa    -0.0000    -0.000    -0.000    -0.000  0.6147  0.0868  0.7840
     4 H(1)   Bbb     0.0000     0.000     0.000     0.000  0.4553  0.7726 -0.4425
              Bcc     0.0000     0.000     0.000     0.000  0.6441 -0.6289 -0.4354
 
              Baa    -0.0000    -0.000    -0.000    -0.000 -0.0079  0.4285  0.9035
     5 C(13)  Bbb    -0.0000    -0.000    -0.000    -0.000 -0.2644  0.8705 -0.4151
              Bcc     0.0000     0.000     0.000     0.000  0.9644  0.2422 -0.1064
 
              Baa    -0.0000    -0.000    -0.000    -0.000  0.4013  0.7377 -0.5430
     6 H(1)   Bbb     0.0000     0.000     0.000     0.000  0.2911  0.4594  0.8392
              Bcc     0.0000     0.000     0.000     0.000  0.8685 -0.4948 -0.0304
 
              Baa    -0.0000    -0.000    -0.000    -0.000  0.7369 -0.3606  0.5718
     7 H(1)   Bbb    -0.0000    -0.000    -0.000    -0.000  0.5856  0.7631 -0.2735
              Bcc     0.0000     0.000     0.000     0.000 -0.3377  0.5364  0.7735
 
              Baa    -0.0000    -0.000    -0.000    -0.000  0.8257 -0.4619 -0.3238
     8 H(1)   Bbb     0.0000     0.000     0.000     0.000  0.1775 -0.3321  0.9264
              Bcc     0.0000     0.000     0.000     0.000  0.5354  0.8224  0.1922
 

 ---------------------------------------------------------------------------------

 Entering OneElI...
 Calculate overlap and kinetic energy integrals
    NBasis = 260  MinDer = 2  MaxDer = 2
 Requested accuracy = 0.1000D-12
 PrsmSu:  NPrtUS=  16 ThrOK=T IAlg=1 NPAlg=1 LenDen=           0.
 Prism:   IPart=     0 DynPar=F LinDyn=F Incr=           2.
 PRISM was handed    26137746 working-precision words and  3403 shell-pairs
 PRISM was handed    26137746 working-precision words and  3403 shell-pairs
 PRISM was handed    26137746 working-precision words and  3403 shell-pairs
 PRISM was handed    26137746 working-precision words and  3403 shell-pairs
 PRISM was handed    26137746 working-precision words and  3403 shell-pairs
 PRISM was handed    26137746 working-precision words and  3403 shell-pairs
 PRISM was handed    26137746 working-precision words and  3403 shell-pairs
 PRISM was handed    26137746 working-precision words and  3403 shell-pairs
 PRISM was handed    26137746 working-precision words and  3403 shell-pairs
 PRISM was handed    26137746 working-precision words and  3403 shell-pairs
 PRISM was handed    26137746 working-precision words and  3403 shell-pairs
 PRISM was handed    26137746 working-precision words and  3403 shell-pairs
 PRISM was handed    26137746 working-precision words and  3403 shell-pairs
 PRISM was handed    26137746 working-precision words and  3403 shell-pairs
 PRISM was handed    26137746 working-precision words and  3403 shell-pairs
 PRISM was handed    26137746 working-precision words and  3403 shell-pairs
 IPart=  2 NShTot=         226 NBatch=          36 AvBLen=         6.3
 IPart=  8 NShTot=         206 NBatch=          22 AvBLen=         9.4
 IPart=  0 NShTot=         234 NBatch=          44 AvBLen=         5.3
 IPart=  4 NShTot=         220 NBatch=          33 AvBLen=         6.7
 IPart=  6 NShTot=         211 NBatch=          25 AvBLen=         8.4
 IPart= 15 NShTot=         201 NBatch=          21 AvBLen=         9.6
 IPart=  9 NShTot=         206 NBatch=          22 AvBLen=         9.4
 IPart= 13 NShTot=         201 NBatch=          21 AvBLen=         9.6
 IPart=  1 NShTot=         233 NBatch=          43 AvBLen=         5.4
 IPart= 10 NShTot=         205 NBatch=          21 AvBLen=         9.8
 IPart=  7 NShTot=         211 NBatch=          25 AvBLen=         8.4
 IPart= 11 NShTot=         204 NBatch=          21 AvBLen=         9.7
 IPart= 14 NShTot=         201 NBatch=          21 AvBLen=         9.6
 IPart= 12 NShTot=         201 NBatch=          21 AvBLen=         9.6
 IPart=  3 NShTot=         223 NBatch=          33 AvBLen=         6.8
 IPart=  5 NShTot=         220 NBatch=          33 AvBLen=         6.7
 PrSmSu:  NxtVal=             33.
 Entering OneElI...
 Calculate potential energy integrals
    NBasis = 260  MinDer = 2  MaxDer = 2
 Requested accuracy = 0.1000D-12
 PrsmSu:  NPrtUS=  16 ThrOK=T IAlg=1 NPAlg=1 LenDen=           0.
 Prism:   IPart=     0 DynPar=F LinDyn=F Incr=          17.
 PRISM was handed    26143545 working-precision words and  3403 shell-pairs
 PRISM was handed    26143545 working-precision words and  3403 shell-pairs
 PRISM was handed    26143545 working-precision words and  3403 shell-pairs
 PRISM was handed    26143545 working-precision words and  3403 shell-pairs
 PRISM was handed    26143545 working-precision words and  3403 shell-pairs
 PRISM was handed    26143545 working-precision words and  3403 shell-pairs
 PRISM was handed    26143545 working-precision words and  3403 shell-pairs
 PRISM was handed    26143545 working-precision words and  3403 shell-pairs
 PRISM was handed    26143545 working-precision words and  3403 shell-pairs
 PRISM was handed    26143545 working-precision words and  3403 shell-pairs
 PRISM was handed    26143545 working-precision words and  3403 shell-pairs
 PRISM was handed    26143545 working-precision words and  3403 shell-pairs
 PRISM was handed    26143545 working-precision words and  3403 shell-pairs
 PRISM was handed    26143545 working-precision words and  3403 shell-pairs
 PRISM was handed    26143545 working-precision words and  3403 shell-pairs
 PRISM was handed    26143545 working-precision words and  3403 shell-pairs
 IPart= 12 NShTot=        1608 NBatch=         201 AvBLen=         8.0
 IPart= 13 NShTot=        1608 NBatch=         201 AvBLen=         8.0
 IPart= 15 NShTot=        1592 NBatch=         199 AvBLen=         8.0
 IPart= 11 NShTot=        1624 NBatch=         203 AvBLen=         8.0
 IPart=  8 NShTot=        1640 NBatch=         205 AvBLen=         8.0
 IPart=  9 NShTot=        1640 NBatch=         205 AvBLen=         8.0
 IPart=  6 NShTot=        1680 NBatch=         210 AvBLen=         8.0
 IPart=  4 NShTot=        1776 NBatch=         222 AvBLen=         8.0
 IPart=  2 NShTot=        1800 NBatch=         225 AvBLen=         8.0
 IPart=  0 NShTot=        1896 NBatch=         237 AvBLen=         8.0
 IPart=  1 NShTot=        1872 NBatch=         234 AvBLen=         8.0
 IPart=  3 NShTot=        1800 NBatch=         225 AvBLen=         8.0
 IPart=  5 NShTot=        1776 NBatch=         222 AvBLen=         8.0
 IPart= 10 NShTot=        1632 NBatch=         204 AvBLen=         8.0
 IPart= 14 NShTot=        1600 NBatch=         200 AvBLen=         8.0
 IPart=  7 NShTot=        1680 NBatch=         210 AvBLen=         8.0
 PrSmSu:  NxtVal=            273.
 Polarizability after L701:
                1             2             3 
      1  0.000000D+00
      2  0.000000D+00  0.000000D+00
      3  0.000000D+00  0.000000D+00  0.000000D+00
 Dipole Derivatives after L701:
                 1             2             3             4             5 
      1  -0.138498D+01 -0.935235D-04 -0.300820D-04  0.461751D+00 -0.674796D+00
      2  -0.320793D-04 -0.127350D+01  0.917363D-05 -0.218263D+00  0.658190D+00
      3  -0.106659D-04 -0.501612D-04 -0.127340D+01 -0.568191D-01  0.130431D+00
                 6             7             8             9            10 
      1  -0.175566D+00  0.461566D+00  0.489433D+00 -0.496498D+00  0.461690D+00
      2   0.130427D+00  0.158341D+00  0.420538D+00 -0.267551D+00  0.599179D-01
      3   0.190882D+00 -0.160607D+00 -0.267564D+00  0.428179D+00  0.217414D+00
                11            12            13            14            15 
      1   0.185433D+00  0.672079D+00 -0.138493D+01  0.172031D-04 -0.100128D-04
      2   0.194759D+00  0.137104D+00  0.109423D-04 -0.127348D+01  0.351083D-05
      3   0.137184D+00  0.654324D+00  0.589019D-05  0.662669D-04 -0.127343D+01
                16            17            18            19            20 
      1   0.461536D+00  0.488889D+00 -0.497076D+00  0.461714D+00  0.186030D+00
      2   0.158113D+00  0.419888D+00 -0.267547D+00  0.602063D-01  0.195049D+00
      3  -0.160808D+00 -0.267571D+00  0.428838D+00  0.217339D+00  0.137633D+00
                21            22            23            24 
      1   0.671958D+00  0.461645D+00 -0.674912D+00 -0.174858D+00
      2   0.137644D+00 -0.218294D+00  0.658560D+00  0.129910D+00
      3   0.654011D+00 -0.565134D-01  0.129871D+00  0.190590D+00
 Hessian after L701:
                1             2             3             4             5 
      1  0.619484D+01
      2 -0.952594D-04  0.820092D+01
      3  0.162350D-03 -0.105588D-03  0.820151D+01
      4 -0.209764D+01 -0.872448D+00 -0.227003D+00  0.209398D+01
      5 -0.846438D+00 -0.697497D+00  0.464218D+00  0.102209D+01  0.638248D+00
      6 -0.220214D+00  0.464234D+00 -0.236089D+01  0.265914D+00 -0.514117D+00
      7 -0.209781D+01  0.632875D+00 -0.641946D+00 -0.409160D-01  0.405767D-01
      8  0.613979D+00 -0.154299D+01 -0.952367D+00 -0.384074D-01  0.244034D-01
      9 -0.622803D+00 -0.952401D+00 -0.151592D+01  0.148373D-01 -0.675738D-01
     10 -0.209766D+01  0.239698D+00  0.868943D+00 -0.409474D-01  0.320483D-01
     11  0.232519D+00 -0.234692D+01  0.488309D+00 -0.263076D-01 -0.422194D-02
     12  0.843012D+00  0.488307D+00 -0.711194D+00 -0.316632D-01  0.841707D-01
     13 -0.475418D-02 -0.675887D-05 -0.146684D-03  0.343393D-01 -0.158495D+00
     14  0.322543D-04 -0.355774D+01 -0.754693D-05 -0.742353D-01  0.397333D-01
     15 -0.126487D-03 -0.138569D-05 -0.355771D+01 -0.193411D-01  0.325256D-01
     16  0.343359D-01  0.537812D-01 -0.547236D-01  0.216759D-01 -0.290002D-01
     17  0.114873D+00 -0.196934D-01 -0.668098D-01  0.164490D-01 -0.286164D-01
     18 -0.116814D+00 -0.667971D-01 -0.174879D-01 -0.289834D-01  0.298041D-01
     19  0.343505D-01  0.204960D-01  0.739463D-01  0.217109D-01 -0.333514D-01
     20  0.437181D-01 -0.758748D-01  0.343337D-01  0.296120D-03 -0.112511D-01
     21  0.157865D+00  0.343269D-01  0.386846D-01  0.333502D-01 -0.398440D-01
     22  0.343314D-01 -0.743006D-01 -0.192319D-01  0.779104D-02 -0.274264D-01
     23 -0.158588D+00  0.397937D-01  0.324295D-01 -0.274338D-01  0.392013D-01
     24 -0.410815D-01  0.324366D-01 -0.769933D-01 -0.711082D-02  0.108164D-01
                6             7             8             9            10 
      6  0.248035D+01
      7 -0.695144D-02  0.209411D+01
      8  0.328030D-01 -0.741404D+00  0.157462D+01
      9 -0.338758D-01  0.752099D+00  0.105467D+01  0.154456D+01
     10  0.258473D-01 -0.409142D-01 -0.142782D-01  0.386025D-01  0.209399D+01
     11 -0.162347D-01  0.635346D-02 -0.343831D-01  0.336911D-01 -0.280795D+00
     12 -0.525175D-02 -0.406836D-01 -0.667032D-01  0.248885D-01 -0.101800D+01
     13 -0.412522D-01  0.343393D-01  0.115000D+00 -0.116660D+00  0.343442D-01
     14  0.325294D-01  0.538681D-01 -0.195618D-01 -0.667988D-01  0.203828D-01
     15 -0.768898D-01 -0.546269D-01 -0.667992D-01 -0.176053D-01  0.739763D-01
     16 -0.164332D-01  0.778747D-02  0.199005D-01 -0.201929D-01  0.217188D-01
     17 -0.857463D-02  0.198839D-01  0.194015D-01 -0.222492D-01  0.287293D-01
     18  0.686609D-02 -0.202116D-01 -0.222847D-01  0.200913D-01 -0.169349D-01
     19  0.222619D-03  0.216784D-01  0.287256D-01 -0.168960D-01  0.779272D-02
     20 -0.148811D-02  0.168826D-01  0.718763D-02 -0.913020D-02  0.755947D-02
     21 -0.106082D-01  0.287430D-01  0.292481D-01 -0.289356D-01  0.273143D-01
     22 -0.713256D-02  0.217183D-01  0.164846D-01 -0.289867D-01  0.216778D-01
     23  0.108483D-01 -0.290359D-01 -0.286738D-01  0.297907D-01 -0.333439D-01
     24  0.293218D-03 -0.164222D-01 -0.856729D-02  0.680452D-02  0.253105D-03
               11            12            13            14            15 
     11  0.246491D+01
     12 -0.540815D+00  0.653521D+00
     13  0.435491D-01  0.157907D+00  0.619527D+01
     14 -0.759445D-01  0.342270D-01 -0.149509D-03  0.820106D+01
     15  0.342392D-01  0.387315D-01  0.614711D-05  0.148045D-03  0.820124D+01
     16  0.168732D-01  0.287717D-01 -0.209799D+01  0.632056D+00 -0.642669D+00
     17  0.713093D-02  0.292329D-01  0.613181D+00 -0.154539D+01 -0.952413D+00
     18 -0.912668D-02 -0.289915D-01 -0.623475D+00 -0.952409D+00 -0.151362D+01
     19  0.754045D-02  0.273188D-01 -0.209769D+01  0.240530D+00  0.868752D+00
     20  0.640346D-03  0.114479D-01  0.233336D+00 -0.234604D+01  0.489909D+00
     21  0.114211D-01  0.388524D-01  0.842826D+00  0.489889D+00 -0.712241D+00
     22  0.268221D-03  0.333381D-01 -0.209786D+01 -0.872484D+00 -0.225971D+00
     23 -0.112039D-01 -0.398673D-01 -0.846414D+00 -0.696117D+00  0.462392D+00
     24 -0.148388D-02 -0.105563D-01 -0.219204D+00  0.462422D+00 -0.236191D+01
               16            17            18            19            20 
     16  0.209429D+01
     17 -0.740504D+00  0.157720D+01
     18  0.752918D+00  0.105471D+01  0.154205D+01
     19 -0.409171D-01 -0.142409D-01  0.386329D-01  0.209402D+01
     20  0.631736D-02 -0.344004D-01  0.337143D-01 -0.281771D+00  0.246393D+01
     21 -0.406790D-01 -0.666693D-01  0.249320D-01 -0.101778D+01 -0.542539D+00
     22 -0.409039D-01 -0.383719D-01  0.148693D-01 -0.409416D-01 -0.263386D-01
     23  0.405761D-01  0.243650D-01 -0.676126D-01  0.320704D-01 -0.419236D-02
     24 -0.699178D-02  0.327714D-01 -0.338439D-01  0.258066D-01 -0.162480D-01
               21            22            23            24 
     21  0.654609D+00
     22 -0.316363D-01  0.209418D+01
     23  0.841673D-01  0.102217D+01  0.636827D+00
     24 -0.529378D-02  0.264751D+00 -0.512148D+00  0.248150D+01
 ICntrl=    100147.
 Calling FoFJK, ICntrl=    100147 FMM=F ISym2X=0 I1Cent= 0 IOpClX= 1 NMat=1 NMatS=1 NMatT=0.
 FoFJK:  IHMeth= 1 ICntrl=  100147 DoSepK=T KAlg= 0 I1Cent=   0 FoldK=F
 IRaf=         1 NMat=   1 IRICut=       1 DoRegI=T DoRafI=F ISym2E= 0.
 FoFCou: FMM=F IPFlag=           0 FMFlag=      100000 FMFlg1=         800
         NFxFlg=           0 DoJE=F BraDBF=F KetDBF=F FulRan=T
         wScrn=  0.000000 ICntrl=  100547 IOpCl=  0 I1Cent=           0 NGrid=           0
         NMat0=    1 NMatS0=      1 NMatT0=    0 NMatD0=    1 NMtDS0=    0 NMtDT0=    0
 Symmetry not used in FoFCou.
 FoFCou:  KetSym=F NOpSet=  1 NOpAb=1 NOp=  1.
 FoFCou:  CnvScl= 1.00D+00 Thresh= 1.00D-08 IAcrcy=      12.
 PrismS was handed   419073281 working-precision words and  3403 shell-pairs
 FoFCou: LinMIO=F DoNuc=F BraDBF=F KetDBF=F HaveP=T PDBF=F HaveZ=T HaveW=F
         NIJTC =      10 NIJTAt=       0 NIJTCD=       0 NIJTT =      10
         IJTBeg=       1 IJTEnd=      10 KLTBeg=       1 KLTEnd=      10
         IPTBeg=       1 IPTEnd=      10 IPTBCv=       1 IPTECv=      10
         IZTBeg=       1 IZTEnd=      10 IZTBCv=       1 IZTECv=      10
         IWTBeg=      11 IWTEnd=      10 IWTBCv=      11 IWTECv=      10
         INTBeg=       1 INTEnd=       0 IFTBCv=       1 IFTECv=      10
 NCel replicated for PrismC:     1
 CoulSu:  IncDef=  1024 NBBP=        5791906 NTPThr=   100 NPartT=   16 Incr=        1024 LDynOK=F.
 CoulSu:  NPrtUS=  16 ThrOK=T IAlg=1 NPAlg=1 LenDen=           0 LWGrdD=           0 DoCopy=F.
 Enter PrismC: JobTyp=22 DoJE=F Cont=F.
 PrismC:  IPart=     0 DynPar=T LinDyn=F Incr=        1024 UseFst=F UseS4=T IGathr=2.
 PrismC was handed    26138460 working-precision words and  3403 shell-pairs
 Enter PrismC: JobTyp=22 DoJE=F Cont=F.
 Enter PrismC: JobTyp=22 DoJE=F Cont=F.
 PrismC was handed    26138460 working-precision words and  3403 shell-pairs
 Enter PrismC: JobTyp=22 DoJE=F Cont=F.
 Enter PrismC: JobTyp=22 DoJE=F Cont=F.
 PrismC was handed    26138460 working-precision words and  3403 shell-pairs
 Enter PrismC: JobTyp=22 DoJE=F Cont=F.
 PrismC was handed    26138460 working-precision words and  3403 shell-pairs
 Enter PrismC: JobTyp=22 DoJE=F Cont=F.
 PrismC was handed    26138460 working-precision words and  3403 shell-pairs
 Enter PrismC: JobTyp=22 DoJE=F Cont=F.
 PrismC was handed    26138460 working-precision words and  3403 shell-pairs
 Enter PrismC: JobTyp=22 DoJE=F Cont=F.
 PrismC was handed    26138460 working-precision words and  3403 shell-pairs
 Enter PrismC: JobTyp=22 DoJE=F Cont=F.
 PrismC was handed    26138460 working-precision words and  3403 shell-pairs
 Enter PrismC: JobTyp=22 DoJE=F Cont=F.
 PrismC was handed    26138460 working-precision words and  3403 shell-pairs
 PrismC was handed    26138460 working-precision words and  3403 shell-pairs
 PrismC was handed    26138460 working-precision words and  3403 shell-pairs
 Enter PrismC: JobTyp=22 DoJE=F Cont=F.
 PrismC was handed    26138460 working-precision words and  3403 shell-pairs
 Enter PrismC: JobTyp=22 DoJE=F Cont=F.
 PrismC was handed    26138460 working-precision words and  3403 shell-pairs
 Enter PrismC: JobTyp=22 DoJE=F Cont=F.
 PrismC was handed    26138460 working-precision words and  3403 shell-pairs
 Enter PrismC: JobTyp=22 DoJE=F Cont=F.
 PrismC was handed    26138460 working-precision words and  3403 shell-pairs
 Enter PrismC: JobTyp=22 DoJE=F Cont=F.
 PrismC was handed    26138460 working-precision words and  3403 shell-pairs
 IPart=  3 NShTot=      356917 NShNF=      356917 NShFF=           0 NBatch=        8062 AvBLen=        44.3
 IPart=  5 NShTot=      360702 NShNF=      360702 NShFF=           0 NBatch=        8381 AvBLen=        43.0
 IPart=  6 NShTot=      329390 NShNF=      329390 NShFF=           0 NBatch=        8012 AvBLen=        41.1
 IPart= 14 NShTot=      349611 NShNF=      349611 NShFF=           0 NBatch=        8118 AvBLen=        43.1
 IPart=  0 NShTot=      325819 NShNF=      325819 NShFF=           0 NBatch=        8086 AvBLen=        40.3
 IPart= 11 NShTot=      358522 NShNF=      358522 NShFF=           0 NBatch=        8296 AvBLen=        43.2
 IPart= 13 NShTot=      346390 NShNF=      346390 NShFF=           0 NBatch=        8218 AvBLen=        42.2
 IPart=  2 NShTot=      329856 NShNF=      329856 NShFF=           0 NBatch=        8049 AvBLen=        41.0
 IPart=  1 NShTot=      359070 NShNF=      359070 NShFF=           0 NBatch=        8272 AvBLen=        43.4
 IPart=  4 NShTot=      352908 NShNF=      352908 NShFF=           0 NBatch=        8506 AvBLen=        41.5
 IPart= 12 NShTot=      344531 NShNF=      344531 NShFF=           0 NBatch=        8360 AvBLen=        41.2
 IPart= 10 NShTot=      349153 NShNF=      349153 NShFF=           0 NBatch=        8145 AvBLen=        42.9
 IPart= 15 NShTot=      357611 NShNF=      357611 NShFF=           0 NBatch=        8177 AvBLen=        43.7
 IPart=  9 NShTot=      345903 NShNF=      345903 NShFF=           0 NBatch=        8040 AvBLen=        43.0
 IPart=  8 NShTot=      305867 NShNF=      305867 NShFF=           0 NBatch=        7758 AvBLen=        39.4
 IPart=  7 NShTot=      357934 NShNF=      357934 NShFF=           0 NBatch=        8144 AvBLen=        44.0
 CoulSu:  NxtVal=        6317057.
 FoFCou: FMM=F IPFlag=           0 FMFlag=      100000 FMFlg1=         800
         NFxFlg=           0 DoJE=F BraDBF=F KetDBF=F FulRan=T
         wScrn=  0.000000 ICntrl=  100147 IOpCl=  1 I1Cent=           0 NGrid=           0
         NMat0=    1 NMatS0=      0 NMatT0=    1 NMatD0=    1 NMtDS0=    0 NMtDT0=    0
         CW=    0.222036    0.777964
         WU=    0.000000   12.500000
 Symmetry not used in FoFCou.
 FoFCou:  KetSym=F NOpSet=  1 NOpAb=1 NOp=  1.
 FoFCou:  CnvScl= 1.00D+00 Thresh= 1.00D-08 IAcrcy=      12.
 PrismS was handed   419069934 working-precision words and  3403 shell-pairs
 FoFCou: LinMIO=F DoNuc=F BraDBF=F KetDBF=F HaveP=T PDBF=F HaveZ=T HaveW=F
         NIJTC =      10 NIJTAt=       0 NIJTCD=       0 NIJTT =      10
         IJTBeg=       1 IJTEnd=      10 KLTBeg=       1 KLTEnd=      10
         IPTBeg=       1 IPTEnd=      10 IPTBCv=       1 IPTECv=      10
         IZTBeg=       1 IZTEnd=      10 IZTBCv=       1 IZTECv=      10
         IWTBeg=      11 IWTEnd=      10 IWTBCv=      11 IWTECv=      10
         INTBeg=       1 INTEnd=       0 IFTBCv=       1 IFTECv=      10
 NCel replicated for PrismC:     1
 CoulSu:  IncDef=  1024 NBBP=        5791906 NTPThr=   100 NPartT=   16 Incr=        1024 LDynOK=F.
 CoulSu:  NPrtUS=  16 ThrOK=T IAlg=1 NPAlg=1 LenDen=           0 LWGrdD=           0 DoCopy=F.
 Enter PrismC: JobTyp=22 DoJE=F Cont=F.
 Linear combination for Coulomb/exchange, wScrn=  0.000000
 CW=    0.222036    0.777964
 WU=    0.000000   12.500000
 Enter PrismC: JobTyp=22 DoJE=F Cont=F.
 Linear combination for Coulomb/exchange, wScrn=  0.000000
 CW=    0.222036    0.777964
 WU=    0.000000   12.500000
 Enter PrismC: JobTyp=22 DoJE=F Cont=F.
 Linear combination for Coulomb/exchange, wScrn=  0.000000
 CW=    0.222036    0.777964
 WU=    0.000000   12.500000
 Enter PrismC: JobTyp=22 DoJE=F Cont=F.
 Linear combination for Coulomb/exchange, wScrn=  0.000000
 CW=    0.222036    0.777964
 WU=    0.000000   12.500000
 PrismC was handed    26138251 working-precision words and  3403 shell-pairs
 Enter PrismC: JobTyp=22 DoJE=F Cont=F.
 Linear combination for Coulomb/exchange, wScrn=  0.000000
 CW=    0.222036    0.777964
 WU=    0.000000   12.500000
 PrismC was handed    26138251 working-precision words and  3403 shell-pairs
 Enter PrismC: JobTyp=22 DoJE=F Cont=F.
 Linear combination for Coulomb/exchange, wScrn=  0.000000
 CW=    0.222036    0.777964
 WU=    0.000000   12.500000
 PrismC was handed    26138251 working-precision words and  3403 shell-pairs
 Enter PrismC: JobTyp=22 DoJE=F Cont=F.
 Linear combination for Coulomb/exchange, wScrn=  0.000000
 CW=    0.222036    0.777964
 WU=    0.000000   12.500000
 Enter PrismC: JobTyp=22 DoJE=F Cont=F.
 Linear combination for Coulomb/exchange, wScrn=  0.000000
 CW=    0.222036    0.777964
 WU=    0.000000   12.500000
 PrismC was handed    26138251 working-precision words and  3403 shell-pairs
 PrismC was handed    26138251 working-precision words and  3403 shell-pairs
 Enter PrismC: JobTyp=22 DoJE=F Cont=F.
 Linear combination for Coulomb/exchange, wScrn=  0.000000
 CW=    0.222036    0.777964
 WU=    0.000000   12.500000
 PrismC was handed    26138251 working-precision words and  3403 shell-pairs
 Enter PrismC: JobTyp=22 DoJE=F Cont=F.
 Linear combination for Coulomb/exchange, wScrn=  0.000000
 CW=    0.222036    0.777964
 WU=    0.000000   12.500000
 PrismC was handed    26138251 working-precision words and  3403 shell-pairs
 PrismC was handed    26138251 working-precision words and  3403 shell-pairs
 PrismC was handed    26138251 working-precision words and  3403 shell-pairs
 Enter PrismC: JobTyp=22 DoJE=F Cont=F.
 Linear combination for Coulomb/exchange, wScrn=  0.000000
 CW=    0.222036    0.777964
 WU=    0.000000   12.500000
 PrismC was handed    26138251 working-precision words and  3403 shell-pairs
 Enter PrismC: JobTyp=22 DoJE=F Cont=F.
 Linear combination for Coulomb/exchange, wScrn=  0.000000
 CW=    0.222036    0.777964
 WU=    0.000000   12.500000
 PrismC was handed    26138251 working-precision words and  3403 shell-pairs
 PrismC:  IPart=     0 DynPar=T LinDyn=F Incr=        1024 UseFst=F UseS4=T IGathr=2.
 PrismC was handed    26138251 working-precision words and  3403 shell-pairs
 Enter PrismC: JobTyp=22 DoJE=F Cont=F.
 Linear combination for Coulomb/exchange, wScrn=  0.000000
 CW=    0.222036    0.777964
 WU=    0.000000   12.500000
 Enter PrismC: JobTyp=22 DoJE=F Cont=F.
 Linear combination for Coulomb/exchange, wScrn=  0.000000
 CW=    0.222036    0.777964
 WU=    0.000000   12.500000
 Enter PrismC: JobTyp=22 DoJE=F Cont=F.
 Linear combination for Coulomb/exchange, wScrn=  0.000000
 CW=    0.222036    0.777964
 WU=    0.000000   12.500000
 Enter PrismC: JobTyp=22 DoJE=F Cont=F.
 Linear combination for Coulomb/exchange, wScrn=  0.000000
 CW=    0.222036    0.777964
 WU=    0.000000   12.500000
 PrismC was handed    26138251 working-precision words and  3403 shell-pairs
 PrismC was handed    26138251 working-precision words and  3403 shell-pairs
 PrismC was handed    26138251 working-precision words and  3403 shell-pairs
 PrismC was handed    26138251 working-precision words and  3403 shell-pairs
 IPart=  3 NShTot=      344392 NShNF=      344392 NShFF=           0 NBatch=       10005 AvBLen=        34.4
 IPart=  4 NShTot=      351727 NShNF=      351727 NShFF=           0 NBatch=       10430 AvBLen=        33.7
 IPart= 11 NShTot=      341802 NShNF=      341802 NShFF=           0 NBatch=       10195 AvBLen=        33.5
 IPart= 14 NShTot=      357238 NShNF=      357238 NShFF=           0 NBatch=        9923 AvBLen=        36.0
 IPart= 15 NShTot=      355056 NShNF=      355056 NShFF=           0 NBatch=       10481 AvBLen=        33.9
 IPart=  2 NShTot=      330666 NShNF=      330666 NShFF=           0 NBatch=        9739 AvBLen=        34.0
 IPart= 13 NShTot=      351272 NShNF=      351272 NShFF=           0 NBatch=       10114 AvBLen=        34.7
 IPart=  6 NShTot=      338668 NShNF=      338668 NShFF=           0 NBatch=        9733 AvBLen=        34.8
 IPart=  7 NShTot=      344509 NShNF=      344509 NShFF=           0 NBatch=        9735 AvBLen=        35.4
 IPart= 10 NShTot=      356247 NShNF=      356247 NShFF=           0 NBatch=       10135 AvBLen=        35.2
 IPart=  9 NShTot=      341457 NShNF=      341457 NShFF=           0 NBatch=        9905 AvBLen=        34.5
 IPart= 12 NShTot=      357250 NShNF=      357250 NShFF=           0 NBatch=       10210 AvBLen=        35.0
 IPart=  8 NShTot=      306795 NShNF=      306795 NShFF=           0 NBatch=        9596 AvBLen=        32.0
 IPart=  5 NShTot=      353733 NShNF=      353733 NShFF=           0 NBatch=       10106 AvBLen=        35.0
 IPart=  1 NShTot=      349915 NShNF=      349915 NShFF=           0 NBatch=        9899 AvBLen=        35.3
 IPart=  0 NShTot=      330080 NShNF=      330080 NShFF=           0 NBatch=        9673 AvBLen=        34.1
 CoulSu:  NxtVal=        6317057.
 ReadGW:  IGet=0 IStart=           1 Next=           1 LGW=           0.
 Remaining memory in FofDFT      399.87 Mw
 CkSvGd:  ISavGI=        -1 IRadAn=       5 IRASav=       5 ISavGd=        -1.
 CalDSu:  NPrtUS=  16 ThrOK=T IAlg=1 NPAlg=2 DoDPD=T LenP=       33930 LenD1P=             0.
 IPart=  0 IRanGd=          0 ScrnBf=T ScrnGd=T RCrit=4.00D+00 DoMicB=T.
 IPart=  0        10730 of        12410 points in      15 batches and       83 microbatches, Max-NSigAt=       8 Max-NSgAt2=       8
 IPart=  5        10686 of        11428 points in      11 batches and       31 microbatches, Max-NSigAt=       8 Max-NSgAt2=       8
 IPart=  1        10199 of        12126 points in      15 batches and       95 microbatches, Max-NSigAt=       8 Max-NSgAt2=       8
 IPart= 14        11039 of        12390 points in      12 batches and       37 microbatches, Max-NSigAt=       8 Max-NSgAt2=       8
 IPart=  9         9504 of        10128 points in      10 batches and       57 microbatches, Max-NSigAt=       8 Max-NSgAt2=       8
 IPart= 12        10365 of        11782 points in      13 batches and       76 microbatches, Max-NSigAt=       8 Max-NSgAt2=       8
 IPart=  3        10711 of        12090 points in      13 batches and       71 microbatches, Max-NSigAt=       8 Max-NSgAt2=       8
 IPart=  8        10434 of        11912 points in      13 batches and       76 microbatches, Max-NSigAt=       8 Max-NSgAt2=       8
 IPart= 15        10281 of        11104 points in      12 batches and       47 microbatches, Max-NSigAt=       8 Max-NSgAt2=       8
 IPart=  4        10649 of        12010 points in      14 batches and       54 microbatches, Max-NSigAt=       8 Max-NSgAt2=       8
 IPart=  7         9878 of        11184 points in      13 batches and       95 microbatches, Max-NSigAt=       8 Max-NSgAt2=       8
 IPart= 11         9565 of        10200 points in      10 batches and       51 microbatches, Max-NSigAt=       8 Max-NSgAt2=       8
 IPart=  2        10253 of        11570 points in      13 batches and       54 microbatches, Max-NSigAt=       8 Max-NSgAt2=       8
 IPart= 13        10763 of        12268 points in      14 batches and       60 microbatches, Max-NSigAt=       8 Max-NSgAt2=       8
 IPart=  6        10222 of        10828 points in      11 batches and       38 microbatches, Max-NSigAt=       8 Max-NSgAt2=       8
 IPart= 10        10817 of        11782 points in      11 batches and       50 microbatches, Max-NSigAt=       8 Max-NSgAt2=       8
 Polarizability after L703:
                1             2             3 
      1  0.000000D+00
      2  0.000000D+00  0.000000D+00
      3  0.000000D+00  0.000000D+00  0.000000D+00
 Dipole Derivatives after L703:
                 1             2             3             4             5 
      1  -0.138498D+01 -0.935235D-04 -0.300820D-04  0.461751D+00 -0.674796D+00
      2  -0.320793D-04 -0.127350D+01  0.917363D-05 -0.218263D+00  0.658190D+00
      3  -0.106659D-04 -0.501612D-04 -0.127340D+01 -0.568191D-01  0.130431D+00
                 6             7             8             9            10 
      1  -0.175566D+00  0.461566D+00  0.489433D+00 -0.496498D+00  0.461690D+00
      2   0.130427D+00  0.158341D+00  0.420538D+00 -0.267551D+00  0.599179D-01
      3   0.190882D+00 -0.160607D+00 -0.267564D+00  0.428179D+00  0.217414D+00
                11            12            13            14            15 
      1   0.185433D+00  0.672079D+00 -0.138493D+01  0.172031D-04 -0.100128D-04
      2   0.194759D+00  0.137104D+00  0.109423D-04 -0.127348D+01  0.351083D-05
      3   0.137184D+00  0.654324D+00  0.589019D-05  0.662669D-04 -0.127343D+01
                16            17            18            19            20 
      1   0.461536D+00  0.488889D+00 -0.497076D+00  0.461714D+00  0.186030D+00
      2   0.158113D+00  0.419888D+00 -0.267547D+00  0.602063D-01  0.195049D+00
      3  -0.160808D+00 -0.267571D+00  0.428838D+00  0.217339D+00  0.137633D+00
                21            22            23            24 
      1   0.671958D+00  0.461645D+00 -0.674912D+00 -0.174858D+00
      2   0.137644D+00 -0.218294D+00  0.658560D+00  0.129910D+00
      3   0.654011D+00 -0.565134D-01  0.129871D+00  0.190590D+00
 Hessian after L703:
                1             2             3             4             5 
      1  0.480012D+00
      2 -0.912607D-05  0.572222D+00
      3 -0.146129D-04  0.570471D-04  0.572116D+00
      4 -0.788157D-01  0.827717D-01  0.215558D-01  0.885389D-01
      5  0.841942D-01 -0.266893D+00 -0.568111D-01 -0.923739D-01  0.287365D+00
      6  0.219511D-01 -0.568029D-01 -0.631676D-01 -0.240562D-01  0.625972D-01
      7 -0.788630D-01 -0.600380D-01  0.608982D-01  0.355725D-02  0.699741D-02
      8 -0.610856D-01 -0.163455D+00  0.116531D+00 -0.104532D-01 -0.186687D-01
      9  0.619562D-01  0.116527D+00 -0.166769D+00 -0.387650D-02 -0.589885D-02
     10 -0.788052D-01 -0.227434D-01 -0.824223D-01  0.354533D-02  0.186154D-02
     11 -0.231537D-01 -0.648790D-01 -0.597509D-01 -0.110216D-01 -0.666511D-02
     12 -0.838414D-01 -0.597668D-01 -0.265190D+00 -0.170254D-02 -0.102847D-02
     13 -0.205728D+00  0.216362D-04 -0.228740D-04 -0.125939D-01 -0.109294D-02
     14  0.247580D-04 -0.801781D-01  0.442903D-05  0.321102D-01  0.232161D-02
     15 -0.209990D-04  0.222520D-04 -0.801732D-01  0.833726D-02  0.692156D-03
     16 -0.126039D-01 -0.232859D-01  0.236658D-01  0.142700D-02  0.506973D-03
     17  0.808552D-03  0.103598D-02 -0.146022D-02 -0.325944D-03  0.653913D-03
     18 -0.828503D-03 -0.146081D-02  0.108472D-02  0.441973D-03 -0.147309D-03
     19 -0.125974D-01 -0.883704D-02 -0.319782D-01  0.142621D-02  0.538959D-03
     20  0.315299D-03 -0.172985D-03  0.741104D-03 -0.742967D-04  0.244033D-03
     21  0.108755D-02  0.731807D-03  0.229623D-02 -0.538050D-03  0.387556D-03
     22 -0.125995D-01  0.321201D-01  0.831816D-02 -0.708500D-02 -0.632155D-03
     23 -0.109433D-02  0.232015D-02  0.688678D-03 -0.632924D-03  0.164181D-02
     24 -0.289362D-03  0.692698D-03 -0.197640D-03 -0.161730D-03  0.208775D-03
                6             7             8             9            10 
      6  0.628901D-01
      7 -0.869738D-02  0.885892D-01
      8  0.205259D-01  0.669966D-01  0.173357D+00
      9  0.579506D-02 -0.679626D-01 -0.128417D+00  0.177022D+00
     10  0.109980D-01  0.355627D-02  0.402391D-02  0.103966D-01  0.885339D-01
     11 -0.274718D-01  0.859146D-02  0.600330D-02  0.201724D-01  0.253960D-01
     12 -0.625540D-02 -0.712053D-02 -0.625269D-02 -0.188784D-01  0.919845D-01
     13 -0.300215D-03 -0.126022D-01  0.816418D-03 -0.821619D-03 -0.125987D-01
     14  0.701693D-03 -0.233002D-01  0.104035D-02 -0.145961D-02 -0.881668D-02
     15 -0.195403D-03  0.236501D-01 -0.146236D-02  0.108013D-02 -0.319842D-01
     16  0.205512D-03 -0.709677D-02  0.464125D-03 -0.467039D-03  0.143244D-02
     17 -0.357665D-03  0.460555D-03  0.126090D-02 -0.430814D-03 -0.437418D-03
     18 -0.188002D-03 -0.470649D-03 -0.432494D-03  0.127397D-02  0.331727D-03
     19  0.662393D-04  0.142711D-02 -0.437155D-03  0.332552D-03 -0.708499D-02
     20  0.597044D-03 -0.213901D-03 -0.195743D-03 -0.344316D-03  0.177209D-03
     21  0.228830D-03 -0.503063D-03 -0.134246D-03  0.661635D-03  0.629108D-03
     22 -0.167058D-03  0.143226D-02 -0.325096D-03  0.442353D-03  0.142100D-02
     23  0.210453D-03  0.506114D-03  0.658603D-03 -0.148386D-03  0.538842D-03
     24  0.892464D-03  0.205937D-03 -0.357930D-03 -0.185525D-03  0.666945D-04
               11            12            13            14            15 
     11  0.647701D-01
     12  0.658450D-01  0.285499D+00
     13  0.304754D-03  0.109045D-02  0.479978D+00
     14 -0.175675D-03  0.729479D-03  0.309928D-04  0.572220D+00
     15  0.732872D-03  0.229763D-02  0.230545D-05  0.205171D-04  0.572180D+00
     16 -0.214285D-03 -0.502448D-03 -0.788589D-01 -0.599700D-01  0.609781D-01
     17 -0.193340D-03 -0.135077D-03 -0.610129D-01 -0.163192D+00  0.116542D+00
     18 -0.344481D-03  0.666179D-03  0.620412D-01  0.116546D+00 -0.167068D+00
     19  0.172276D-03  0.630195D-03 -0.788129D-01 -0.228398D-01 -0.824111D-01
     20  0.898902D-03  0.222196D-03 -0.232557D-01 -0.650059D-01 -0.599665D-01
     21  0.220623D-03  0.163517D-02 -0.838278D-01 -0.599762D-01 -0.265078D+00
     22 -0.748793D-04 -0.538189D-03 -0.787835D-01  0.827607D-01  0.214486D-01
     23  0.240746D-03  0.386456D-03  0.841878D-01 -0.267030D+00 -0.565810D-01
     24  0.596334D-03  0.225514D-03  0.218386D-01 -0.565662D-01 -0.630430D-01
               16            17            18            19            20 
     16  0.885873D-01
     17  0.669287D-01  0.173064D+00
     18 -0.680439D-01 -0.128431D+00  0.177342D+00
     19  0.355687D-02  0.403699D-02  0.103933D-01  0.885403D-01
     20  0.858479D-02  0.601918D-02  0.201412D-01  0.254923D-01  0.649090D-01
     21 -0.713134D-02 -0.628219D-02 -0.188893D-01  0.919745D-01  0.660814D-01
     22  0.355598D-02 -0.104585D-01 -0.386504D-02  0.354478D-02 -0.110257D-01
     23  0.698554D-02 -0.186495D-01 -0.587085D-02  0.187342D-02 -0.669653D-02
     24 -0.870472D-02  0.205551D-01  0.577904D-02  0.109925D-01 -0.274721D-01
               21            22            23            24 
     21  0.285370D+00
     22 -0.169090D-02  0.885140D-01
     23 -0.102875D-02 -0.923645D-01  0.287515D+00
     24 -0.622414D-02 -0.239479D-01  0.623433D-01  0.627533D-01
 FrcOut:
 IF    =   297 IFX   =   325 IFXYZ =   349
 IFFX  =   373 IFFFX =   673 IFLen =    28
 IFFLen=   300 IFFFLn=     0 IEDerv=   673
 LEDerv=  1205 IFroze=  2160 ICStrt=108517
 DipoleDeriv   =-1.38497662D+00-3.20792714D-05-1.06658787D-05
                -9.35235391D-05-1.27349905D+00-5.01612250D-05
                -3.00819512D-05 9.17363293D-06-1.27339556D+00
                 4.61751436D-01-2.18263287D-01-5.68191349D-02
                -6.74796261D-01 6.58189723D-01 1.30431115D-01
                -1.75565902D-01 1.30426665D-01 1.90882477D-01
                 4.61565929D-01 1.58341451D-01-1.60607497D-01
                 4.89432506D-01 4.20537612D-01-2.67563748D-01
                -4.96497670D-01-2.67550533D-01 4.28178561D-01
                 4.61690100D-01 5.99179331D-02 2.17414335D-01
                 1.85433492D-01 1.94758803D-01 1.37184306D-01
                 6.72079295D-01 1.37103848D-01 6.54324179D-01
                -1.38492579D+00 1.09423401D-05 5.89019423D-06
                 1.72030526D-05-1.27348441D+00 6.62669329D-05
                -1.00128245D-05 3.51082581D-06-1.27342810D+00
                 4.61536195D-01 1.58112751D-01-1.60808115D-01
                 4.88888952D-01 4.19888211D-01-2.67571319D-01
                -4.97075654D-01-2.67546876D-01 4.28837761D-01
                 4.61714216D-01 6.02062940D-02 2.17338601D-01
                 1.86029782D-01 1.95049433D-01 1.37632834D-01
                 6.71957900D-01 1.37643784D-01 6.54011114D-01
                 4.61644534D-01-2.18294005D-01-5.65134136D-02
                -6.74912150D-01 6.58559680D-01 1.29870707D-01
                -1.74857875D-01 1.29910428D-01 1.90589568D-01
 Quadrupole    =-3.56631735D-01 1.78475698D-01 1.78156037D-01
                 7.13921361D-05-9.79557221D-06-1.89661861D-05
 Forces in standard orientation:
 -------------------------------------------------------------------
 Center     Atomic                   Forces (Hartrees/Bohr)
 Number     Number              X              Y              Z
 -------------------------------------------------------------------
      1        6          -0.000068996   -0.000014747   -0.000012181
      2        1          -0.000039707    0.000006890   -0.000000472
      3        1          -0.000035677    0.000008556    0.000007335
      4        1          -0.000037018    0.000001367    0.000001423
      5        6           0.000047267   -0.000009845    0.000012691
      6        1           0.000046130    0.000004032   -0.000001837
      7        1           0.000040291    0.000000508    0.000001237
      8        1           0.000047711    0.000003239   -0.000008196
 -------------------------------------------------------------------
 ***** Axes restored to original set *****
 Rotating derivatives, DoTrsp=F IDiff=-2 LEDeriv=   1204 LFDPrp=       0 LDFDPr=       0.
 -------------------------------------------------------------------
 Center     Atomic                   Forces (Hartrees/Bohr)
 Number     Number              X              Y              Z
 -------------------------------------------------------------------
      1        6           0.000030707    0.000064070    0.000008860
      2        1           0.000016563    0.000030491    0.000020502
      3        1           0.000019918    0.000022416    0.000022376
      4        1           0.000018900    0.000028148    0.000014990
      5        6          -0.000009709   -0.000043209   -0.000023040
      6        1          -0.000025895   -0.000035976   -0.000013522
      7        1          -0.000019221   -0.000032612   -0.000013862
      8        1          -0.000031264   -0.000033328   -0.000016303
 -------------------------------------------------------------------
 Cartesian Forces:  Max     0.000064070 RMS     0.000027495
 Force constants in Cartesian coordinates: 
                1             2             3             4             5 
      1  0.549475D+00
      2 -0.360155D-01  0.514751D+00
      3 -0.165504D-01 -0.263997D-01  0.560124D+00
      4 -0.480937D-01  0.516421D-03  0.305822D-02  0.482566D-01
      5  0.542136D-03 -0.474847D-01  0.481433D-02  0.257952D-02  0.506651D-01
      6  0.227408D-02  0.356358D-02 -0.313297D+00 -0.127234D-02 -0.196160D-02
      7 -0.287450D+00  0.357084D-02  0.782739D-01  0.943791D-03  0.203191D-03
      8  0.476937D-02 -0.476075D-01 -0.880116D-03 -0.935656D-03 -0.115719D-02
      9  0.790702D-01 -0.497677D-03 -0.740292D-01  0.318173D-01 -0.106844D-02
     10 -0.960729D-01  0.970360D-01 -0.348577D-01 -0.494194D-03 -0.163176D-02
     11  0.958466D-01 -0.238922D+00  0.701322D-01 -0.474465D-03  0.246386D-03
     12 -0.348339D-01  0.710082D-01 -0.738789D-01 -0.147754D-01  0.282057D-01
     13 -0.111006D+00 -0.491018D-01 -0.225484D-01 -0.192150D-03  0.277564D-03
     14 -0.490944D-01 -0.158381D+00 -0.359551D-01  0.272510D-03  0.355943D-04
     15 -0.225640D-01 -0.359494D-01 -0.966920D-01 -0.181132D-01 -0.288480D-01
     16 -0.145689D-01  0.300731D-03  0.468470D-02  0.287577D-03  0.350147D-03
     17 -0.274454D-01  0.509580D-04  0.898719D-02  0.835153D-03  0.111731D-02
     18 -0.135789D-01  0.206156D-03  0.403467D-02 -0.137869D-03  0.759119D-03
     19  0.790365D-02 -0.165663D-01  0.606509D-02  0.494326D-03  0.928944D-03
     20  0.111048D-01 -0.224345D-01  0.814664D-02  0.451879D-03  0.909529D-03
     21  0.605111D-02 -0.121367D-01  0.405670D-02  0.743953D-03  0.205397D-03
     22 -0.186399D-03  0.259711D-03 -0.181255D-01 -0.120220D-02 -0.324974D-02
     23  0.292433D-03  0.273277D-04 -0.288455D-01 -0.324536D-02 -0.433203D-02
     24  0.131695D-03  0.205626D-03 -0.103179D-01 -0.132061D-02 -0.210643D-02
                6             7             8             9            10 
      6  0.339872D+00
      7 -0.155565D-03  0.312394D+00
      8  0.504152D-03 -0.110822D-02  0.507756D-01
      9 -0.910294D-02 -0.851470D-01  0.300165D-02  0.757977D-01
     10  0.538500D-03 -0.124299D-01  0.263839D-01 -0.109541D-01  0.100969D+00
     11  0.868370D-04 -0.689638D-04  0.258176D-03 -0.486659D-03 -0.103056D+00
     12 -0.912737D-02  0.433620D-02 -0.101017D-01  0.285285D-02  0.397250D-01
     13  0.128020D-03 -0.145681D-01 -0.274341D-01 -0.135845D-01  0.791015D-02
     14  0.209036D-03  0.295627D-03  0.454497D-04  0.196627D-03 -0.165746D-01
     15 -0.103112D-01  0.469110D-02  0.900218D-02  0.404087D-02  0.605450D-02
     16 -0.503608D-03  0.229105D-04 -0.299077D-02 -0.171499D-02  0.800915D-03
     17  0.107261D-03 -0.299380D-02 -0.434216D-02 -0.246369D-02  0.479123D-03
     18  0.488019D-03 -0.171214D-02 -0.246033D-02 -0.242663D-03  0.652493D-03
     19  0.314179D-03  0.796261D-03  0.479648D-03  0.652156D-03 -0.117368D-02
     20 -0.405208D-03 -0.250218D-03  0.905734D-03  0.559057D-03 -0.356509D-02
     21  0.495214D-03  0.217787D-03  0.825222D-03  0.191006D-03 -0.147165D-02
     22 -0.132326D-02  0.291195D-03  0.835815D-03 -0.138917D-03  0.490848D-03
     23 -0.210406D-02  0.351544D-03  0.112183D-02  0.759139D-03  0.928199D-03
     24  0.983515D-03 -0.504278D-03  0.108982D-03  0.492313D-03  0.313084D-03
               11            12            13            14            15 
     11  0.262178D+00
     12 -0.754111D-01  0.756568D-01
     13  0.111141D-01  0.605563D-02  0.549529D+00
     14 -0.224361D-01 -0.121256D-01 -0.360520D-01  0.514771D+00
     15  0.813466D-02  0.404924D-02 -0.165850D-01 -0.264230D-01  0.560077D+00
     16 -0.249657D-03  0.218957D-03 -0.287630D+00  0.372685D-02  0.780847D-01
     17  0.910434D-03  0.825849D-03  0.493174D-02 -0.476048D-01 -0.927426D-03
     18  0.560497D-03  0.193931D-03  0.788727D-01 -0.546566D-03 -0.738843D-01
     19 -0.356238D-02 -0.146980D-02 -0.959464D-01  0.969040D-01 -0.348953D-01
     20 -0.313916D-02 -0.260713D-02  0.957203D-01 -0.238946D+00  0.703166D-01
     21 -0.261127D-02 -0.238078D-03 -0.348726D-01  0.711991D-01 -0.740041D-01
     22  0.450567D-03  0.743344D-03 -0.480972D-01  0.521920D-03  0.332718D-02
     23  0.904917D-03  0.205803D-03  0.544157D-03 -0.474843D-01  0.469441D-02
     24 -0.405205D-03  0.491492D-03  0.253420D-02  0.344549D-02 -0.313275D+00
               16            17            18            19            20 
     16  0.312581D+00
     17 -0.127683D-02  0.507826D-01
     18 -0.849399D-01  0.304958D-02  0.756298D-01
     19 -0.124083D-01  0.263910D-01 -0.109827D-01  0.100816D+00
     20 -0.633561D-04  0.243529D-03 -0.481781D-03 -0.102917D+00  0.262201D+00
     21  0.431679D-02 -0.100778D-01  0.285152D-02  0.397696D-01 -0.756101D-01
     22  0.914430D-03 -0.920971D-03  0.318263D-01 -0.481386D-03 -0.480842D-03
     23  0.202877D-03 -0.115785D-02 -0.108668D-02 -0.165739D-02  0.259968D-03
     24 -0.146691D-03  0.499067D-03 -0.907101D-02  0.546705D-03  0.819433D-04
               21            22            23            24 
     21  0.758022D-01
     22 -0.147550D-01  0.482707D-01
     23  0.282063D-01  0.258354D-02  0.506602D-01
     24 -0.915447D-02 -0.155410D-02 -0.182948D-02  0.339851D+00
 Cartesian forces in FCRed:
 I=    1 X=   3.070711947706D-05 Y=   6.406970369461D-05 Z=   8.859792421922D-06
 I=    2 X=   1.656315890153D-05 Y=   3.049117958566D-05 Z=   2.050152101711D-05
 I=    3 X=   1.991833771154D-05 Y=   2.241610350987D-05 Z=   2.237551039815D-05
 I=    4 X=   1.889997154008D-05 Y=   2.814800847077D-05 Z=   1.499016397625D-05
 I=    5 X=  -9.708972972485D-06 Y=  -4.320860186860D-05 Z=  -2.304046409660D-05
 I=    6 X=  -2.589470269226D-05 Y=  -3.597594428554D-05 Z=  -1.352176855633D-05
 I=    7 X=  -1.922063641982D-05 Y=  -3.261196281379D-05 Z=  -1.386160338901D-05
 I=    8 X=  -3.126427537267D-05 Y=  -3.332848635146D-05 Z=  -1.630315168107D-05
 Cartesian force constants in FCRed: 
                1             2             3             4             5 
      1  0.549475D+00
      2 -0.360155D-01  0.514751D+00
      3 -0.165504D-01 -0.263997D-01  0.560124D+00
      4 -0.480937D-01  0.516421D-03  0.305822D-02  0.482566D-01
      5  0.542136D-03 -0.474847D-01  0.481433D-02  0.257952D-02  0.506651D-01
      6  0.227408D-02  0.356358D-02 -0.313297D+00 -0.127234D-02 -0.196160D-02
      7 -0.287450D+00  0.357084D-02  0.782739D-01  0.943791D-03  0.203191D-03
      8  0.476937D-02 -0.476075D-01 -0.880116D-03 -0.935656D-03 -0.115719D-02
      9  0.790702D-01 -0.497677D-03 -0.740292D-01  0.318173D-01 -0.106844D-02
     10 -0.960729D-01  0.970360D-01 -0.348577D-01 -0.494194D-03 -0.163176D-02
     11  0.958466D-01 -0.238922D+00  0.701322D-01 -0.474465D-03  0.246386D-03
     12 -0.348339D-01  0.710082D-01 -0.738789D-01 -0.147754D-01  0.282057D-01
     13 -0.111006D+00 -0.491018D-01 -0.225484D-01 -0.192150D-03  0.277564D-03
     14 -0.490944D-01 -0.158381D+00 -0.359551D-01  0.272510D-03  0.355943D-04
     15 -0.225640D-01 -0.359494D-01 -0.966920D-01 -0.181132D-01 -0.288480D-01
     16 -0.145689D-01  0.300731D-03  0.468470D-02  0.287577D-03  0.350147D-03
     17 -0.274454D-01  0.509580D-04  0.898719D-02  0.835153D-03  0.111731D-02
     18 -0.135789D-01  0.206156D-03  0.403467D-02 -0.137869D-03  0.759119D-03
     19  0.790365D-02 -0.165663D-01  0.606509D-02  0.494326D-03  0.928944D-03
     20  0.111048D-01 -0.224345D-01  0.814664D-02  0.451879D-03  0.909529D-03
     21  0.605111D-02 -0.121367D-01  0.405670D-02  0.743953D-03  0.205397D-03
     22 -0.186399D-03  0.259711D-03 -0.181255D-01 -0.120220D-02 -0.324974D-02
     23  0.292433D-03  0.273277D-04 -0.288455D-01 -0.324536D-02 -0.433203D-02
     24  0.131695D-03  0.205626D-03 -0.103179D-01 -0.132061D-02 -0.210643D-02
                6             7             8             9            10 
      6  0.339872D+00
      7 -0.155565D-03  0.312394D+00
      8  0.504152D-03 -0.110822D-02  0.507756D-01
      9 -0.910294D-02 -0.851470D-01  0.300165D-02  0.757977D-01
     10  0.538500D-03 -0.124299D-01  0.263839D-01 -0.109541D-01  0.100969D+00
     11  0.868370D-04 -0.689638D-04  0.258176D-03 -0.486659D-03 -0.103056D+00
[...]
     16  0.102717D+00
     17  0.140417D-01  0.515678D-01
     18 -0.399701D-01  0.927626D-02  0.515626D-01
     19 -0.399414D-01  0.927098D-02  0.926907D-02  0.515040D-01
     20 -0.485386D-02  0.573017D-02 -0.501840D-02 -0.709818D-03  0.145393D-01
     21  0.483602D-02 -0.572356D-02  0.711943D-03  0.500765D-02  0.400950D-02
     22 -0.174232D-04 -0.277047D-05  0.643669D-02 -0.642402D-02  0.359760D-02
     23 -0.291659D-02  0.643837D-02 -0.643613D-02  0.000000D+00  0.362392D-02
     24  0.677330D-02 -0.501537D-02 -0.705790D-03  0.571725D-02 -0.690589D-02
     25  0.191985D-02  0.705425D-03  0.501896D-02 -0.571441D-02 -0.731780D-02
     26 -0.680041D-02  0.502132D-02 -0.572614D-02  0.709439D-03  0.403043D-02
     27  0.288947D-02 -0.643241D-02  0.420508D-05  0.642690D-02 -0.649938D-02
     28 -0.196397D-02 -0.711620D-03  0.572895D-02 -0.500476D-02 -0.691129D-02
               21            22            23            24            25 
     21  0.145171D-01
     22  0.359595D-02  0.136929D-01
     23 -0.649765D-02 -0.649793D-02  0.137459D-01
     24  0.400995D-02 -0.649957D-02  0.362432D-02  0.145402D-01
     25 -0.691120D-02  0.359741D-02  0.362404D-02  0.403064D-02  0.145393D-01
     26 -0.691108D-02 -0.649872D-02  0.362334D-02 -0.731817D-02 -0.690581D-02
     27  0.359651D-02 -0.650036D-02 -0.649823D-02  0.359767D-02 -0.649921D-02
     28 -0.732463D-02  0.359662D-02 -0.649851D-02 -0.691185D-02  0.400940D-02
               26            27            28 
     26  0.145393D-01
     27  0.359780D-02  0.136937D-01
     28  0.401016D-02  0.359682D-02  0.145181D-01
 Force constants in internal coordinates: 
                1             2             3             4             5 
      1  0.339873D+00
      2  0.260731D-02  0.339851D+00
      3  0.261575D-02  0.260796D-02  0.339860D+00
      4  0.543866D-02  0.543459D-02  0.543952D-02  0.294024D+00
      5  0.626234D-03 -0.982429D-03  0.627692D-03  0.543510D-02  0.339886D+00
      6  0.628091D-03  0.625484D-03 -0.983463D-03  0.543950D-02  0.260584D-02
      7 -0.982978D-03  0.628621D-03  0.626068D-03  0.543935D-02  0.260651D-02
      8  0.537731D-02  0.536284D-02  0.339587D-03 -0.163946D-01 -0.114789D-02
      9  0.536420D-02  0.336947D-03  0.537136D-02 -0.163955D-01  0.263640D-03
     10  0.860615D-03 -0.563675D-02 -0.563686D-02  0.154120D-01 -0.993918D-03
     11  0.339066D-03  0.535965D-02  0.537468D-02 -0.163942D-01 -0.114501D-02
     12 -0.564111D-02  0.880129D-03 -0.564098D-02  0.154062D-01  0.389905D-02
     13 -0.563781D-02 -0.564075D-02  0.856452D-03  0.154224D-01 -0.997245D-03
     14 -0.998787D-03  0.389948D-02 -0.100446D-02  0.154073D-01  0.881936D-03
     15 -0.100315D-02 -0.992237D-03  0.390473D-02  0.154192D-01 -0.564106D-02
     16  0.390263D-02 -0.999155D-03 -0.998612D-03  0.154242D-01 -0.563708D-02
     17  0.266563D-03 -0.114786D-02 -0.114276D-02 -0.163965D-01  0.535846D-02
     18 -0.114513D-02 -0.114512D-02  0.266589D-03 -0.163971D-01  0.536161D-02
     19 -0.114290D-02  0.263464D-03 -0.114621D-02 -0.163968D-01  0.336386D-03
     20 -0.516632D-03 -0.358579D-02  0.409663D-02 -0.333527D-05 -0.506389D-03
     21  0.494594D-03 -0.409039D-02  0.359025D-02  0.000000D+00 -0.408892D-02
     22 -0.108467D-04 -0.308264D-02  0.308479D-02 -0.492047D-05  0.308268D-02
     23  0.307506D-02  0.382137D-05 -0.307444D-02 -0.603101D-05 -0.278520D-05
     24  0.408629D-02 -0.500777D-03 -0.358082D-02 -0.299458D-05 -0.358531D-02
     25  0.358085D-02  0.506977D-03 -0.408628D-02 -0.761622D-05  0.358628D-02
     26 -0.409397D-02  0.358696D-02  0.511925D-03 -0.779412D-05  0.501366D-03
     27 -0.308275D-02  0.308237D-02  0.553837D-05 -0.475769D-05 -0.308116D-02
     28 -0.358819D-02  0.409012D-02 -0.499919D-03 -0.937932D-05  0.409043D-02
                6             7             8             9            10 
      6  0.339881D+00
      7  0.261615D-02  0.339853D+00
      8  0.266709D-03 -0.114230D-02  0.515692D-01
      9 -0.114379D-02 -0.114532D-02  0.926669D-02  0.515086D-01
     10 -0.100431D-02  0.390210D-02 -0.399598D-01 -0.399363D-01  0.102698D+00
     11 -0.114528D-02  0.266799D-03  0.927524D-02  0.927051D-02  0.140476D-01
     12 -0.998469D-03 -0.100472D-02 -0.399999D-01  0.140370D-01 -0.203892D-01
     13  0.390434D-02 -0.997827D-03  0.140455D-01 -0.399534D-01 -0.204076D-01
     14 -0.564239D-02 -0.563993D-02 -0.383246D-02  0.437839D-02 -0.699842D-02
     15  0.857241D-03 -0.563892D-02  0.437576D-02 -0.382618D-02 -0.699137D-02
     16 -0.563679D-02  0.862289D-03 -0.382620D-02 -0.383238D-02  0.170774D-01
     17  0.537304D-02  0.339483D-03  0.270520D-03  0.267378D-03  0.437444D-02
     18  0.338890D-03  0.537676D-02  0.295382D-02  0.269032D-03 -0.383073D-02
     19  0.537259D-02  0.536266D-02  0.267449D-03  0.295198D-02 -0.382749D-02
     20  0.408585D-02 -0.358061D-02 -0.501474D-02  0.571597D-02 -0.192543D-02
     21  0.502373D-03  0.358931D-02 -0.572361D-02  0.500510D-02  0.195875D-02
     22 -0.308435D-02  0.128594D-04 -0.643245D-02  0.642448D-02  0.126399D-04
     23  0.307392D-02 -0.307528D-02  0.643773D-02  0.258571D-05  0.291448D-02
     24 -0.509558D-03  0.409464D-02  0.572887D-02 -0.708280D-03  0.679866D-02
     25 -0.409628D-02  0.518190D-03  0.502003D-02  0.711103D-03  0.485255D-02
     26  0.358068D-02 -0.408638D-02  0.704919D-03 -0.571308D-02 -0.677249D-02
     27 -0.280208D-05  0.308355D-02 -0.394630D-05 -0.642395D-02 -0.288830D-02
     28 -0.358953D-02 -0.492902D-03 -0.712786D-03 -0.500457D-02 -0.483442D-02
               11            12            13            14            15 
     11  0.515620D-01
     12 -0.399883D-01  0.102771D+00
     13 -0.399726D-01 -0.203752D-01  0.102725D+00
     14 -0.382639D-02  0.170896D-01 -0.700664D-02  0.102777D+00
     15 -0.382948D-02 -0.699625D-02  0.170723D-01 -0.203868D-01  0.102734D+00
     16  0.437417D-02 -0.700934D-02 -0.698168D-02 -0.203819D-01 -0.204015D-01
     17  0.295311D-02 -0.383216D-02 -0.382487D-02 -0.399963D-01 -0.399712D-01
     18  0.268447D-03 -0.382594D-02  0.437470D-02 -0.399894D-01  0.140426D-01
     19  0.268736D-03  0.437734D-02 -0.382910D-02  0.140327D-01 -0.399503D-01
     20 -0.705958D-03 -0.484139D-02  0.677204D-02 -0.194869D-02  0.680068D-02
     21  0.711112D-03 -0.678709D-02  0.483571D-02 -0.678908D-02  0.195760D-02
     22  0.347534D-05 -0.289774D-02  0.288984D-02  0.289701D-02 -0.288935D-02
     23 -0.643781D-02  0.000000D+00 -0.291818D-02 -0.314324D-05  0.291764D-02
     24 -0.502074D-02 -0.194568D-02 -0.485451D-02 -0.484353D-02 -0.192545D-02
     25 -0.572837D-02  0.194368D-02 -0.680038D-02  0.484256D-02 -0.677239D-02
     26  0.501989D-02  0.484303D-02  0.191957D-02  0.194130D-02  0.485457D-02
     27  0.643696D-02  0.289733D-02 -0.167567D-04 -0.289908D-02  0.114796D-04
     28  0.572932D-02  0.678668D-02 -0.196263D-02  0.678700D-02 -0.483546D-02
               16            17            18            19            20 
     16  0.102717D+00
     17  0.140417D-01  0.515678D-01
     18 -0.399701D-01  0.927626D-02  0.515626D-01
     19 -0.399414D-01  0.927098D-02  0.926907D-02  0.515040D-01
     20 -0.485386D-02  0.573017D-02 -0.501840D-02 -0.709818D-03  0.145393D-01
     21  0.483602D-02 -0.572356D-02  0.711943D-03  0.500765D-02  0.400950D-02
     22 -0.174232D-04 -0.277047D-05  0.643669D-02 -0.642402D-02  0.359760D-02
     23 -0.291659D-02  0.643837D-02 -0.643613D-02  0.000000D+00  0.362392D-02
     24  0.677330D-02 -0.501537D-02 -0.705790D-03  0.571725D-02 -0.690589D-02
     25  0.191985D-02  0.705425D-03  0.501896D-02 -0.571441D-02 -0.731780D-02
     26 -0.680041D-02  0.502132D-02 -0.572614D-02  0.709439D-03  0.403043D-02
     27  0.288947D-02 -0.643241D-02  0.420508D-05  0.642690D-02 -0.649938D-02
     28 -0.196397D-02 -0.711620D-03  0.572895D-02 -0.500476D-02 -0.691129D-02
               21            22            23            24            25 
     21  0.145171D-01
     22  0.359595D-02  0.136929D-01
     23 -0.649765D-02 -0.649793D-02  0.137459D-01
     24  0.400995D-02 -0.649957D-02  0.362432D-02  0.145402D-01
     25 -0.691120D-02  0.359741D-02  0.362404D-02  0.403064D-02  0.145393D-01
     26 -0.691108D-02 -0.649872D-02  0.362334D-02 -0.731817D-02 -0.690581D-02
     27  0.359651D-02 -0.650036D-02 -0.649823D-02  0.359767D-02 -0.649921D-02
     28 -0.732463D-02  0.359662D-02 -0.649851D-02 -0.691185D-02  0.400940D-02
               26            27            28 
     26  0.145393D-01
     27  0.359780D-02  0.136937D-01
     28  0.401016D-02  0.359682D-02  0.145181D-01
 Final forces over variables, Energy=-7.98332129D+01:
  2.05757507D-05 1.24117441D-05 1.15234512D-05 1.81398909D-04
  2.07859673D-05 1.55661423D-05 1.63608224D-05-3.73010302D-05
 -3.68210582D-05 3.16304711D-05-3.20808411D-05 3.13745433D-05
  3.68423316D-05 3.83548444D-05 3.46937267D-05 4.62645912D-05
 -4.06522263D-05-4.64369534D-05-3.98071017D-05-1.14384721D-06
  1.14163534D-06-2.96486263D-06-5.94397268D-06-3.65849012D-06
 -7.76498810D-06-6.31548013D-07 1.65393454D-06-2.45256343D-06

 GradGradGradGradGradGradGradGradGradGradGradGradGradGradGradGradGradGrad
 Berny optimization.
 Internal  Forces:  Max     0.000181399 RMS     0.000043101
 Search for a local minimum.
 Step number   1 out of a maximum of    1
 All quantities printed in internal units (Hartrees-Bohrs-Radians)
 Mixed Optimization -- En-DIIS/RFO-DIIS
 Second derivative matrix not updated -- analytic derivatives used.
 ITU=  0
     Eigenvalues ---    0.00214   0.04454   0.04461   0.04662   0.04667
     Eigenvalues ---    0.11993   0.12388   0.12396   0.12404   0.17700
     Eigenvalues ---    0.17703   0.30946   0.33693   0.33694   0.33931
     Eigenvalues ---    0.33932   0.34628   0.34862
 RFO step:  Lambda=-2.19133885D-07 EMin= 2.13931994D-03
 Linear search not attempted -- first point.
 Iteration  1 RMS(Cart)=  0.00059449 RMS(Int)=  0.00000016
 Iteration  2 RMS(Cart)=  0.00000016 RMS(Int)=  0.00000002
 Variable       Old X    -DE/DX   Delta X   Delta X   Delta X     New X
                                 (Linear)    (Quad)   (Total)
    R1        2.06027   0.00002   0.00000   0.00007   0.00007   2.06033
    R2        2.06029   0.00001   0.00000   0.00004   0.00004   2.06033
    R3        2.06031   0.00001   0.00000   0.00003   0.00003   2.06034
    R4        2.87782   0.00018   0.00000   0.00047   0.00047   2.87829
    R5        2.06026   0.00002   0.00000   0.00007   0.00007   2.06033
    R6        2.06029   0.00002   0.00000   0.00005   0.00005   2.06034
    R7        2.06028   0.00002   0.00000   0.00005   0.00005   2.06033
    A1        1.87849  -0.00004   0.00000  -0.00026  -0.00026   1.87823
    A2        1.87846  -0.00004   0.00000  -0.00022  -0.00022   1.87824
    A3        1.94188   0.00003   0.00000   0.00014   0.00014   1.94202
    A4        1.87834  -0.00003   0.00000  -0.00013  -0.00013   1.87821
    A5        1.94184   0.00003   0.00000   0.00018   0.00018   1.94203
    A6        1.94177   0.00004   0.00000   0.00024   0.00024   1.94201
    A7        1.94181   0.00004   0.00000   0.00022   0.00022   1.94203
    A8        1.94181   0.00003   0.00000   0.00021   0.00021   1.94201
    A9        1.94172   0.00005   0.00000   0.00030   0.00030   1.94202
   A10        1.87847  -0.00004   0.00000  -0.00026  -0.00026   1.87821
   A11        1.87854  -0.00005   0.00000  -0.00031  -0.00031   1.87823
   A12        1.87844  -0.00004   0.00000  -0.00020  -0.00020   1.87824
    D1        1.04828  -0.00000   0.00000  -0.00110  -0.00110   1.04719
    D2       -1.04614   0.00000   0.00000  -0.00105  -0.00105  -1.04719
    D3       -3.14046  -0.00000   0.00000  -0.00114  -0.00114   3.14159
    D4       -3.14039  -0.00001   0.00000  -0.00120  -0.00120   3.14159
    D5        1.04837  -0.00000   0.00000  -0.00116  -0.00116   1.04722
    D6       -1.04595  -0.00001   0.00000  -0.00125  -0.00125  -1.04720
    D7       -1.04615  -0.00000   0.00000  -0.00108  -0.00108  -1.04723
    D8       -3.14057   0.00000   0.00000  -0.00103  -0.00103   3.14159
    D9        1.04830  -0.00000   0.00000  -0.00112  -0.00112   1.04717
         Item               Value     Threshold  Converged?
 Maximum Force            0.000181     0.000450     YES
 RMS     Force            0.000043     0.000300     YES
 Maximum Displacement     0.001374     0.001800     YES
 RMS     Displacement     0.000594     0.001200     YES
 Predicted change in Energy=-1.095669D-07
 Optimization completed.
    -- Stationary point found.
                           ----------------------------
                           !   Optimized Parameters   !
                           ! (Angstroms and Degrees)  !
 --------------------------                            --------------------------
 ! Name  Definition              Value          Derivative Info.                !
 --------------------------------------------------------------------------------
 ! R1    R(1,2)                  1.0902         -DE/DX =    0.0                 !
 ! R2    R(1,3)                  1.0903         -DE/DX =    0.0                 !
 ! R3    R(1,4)                  1.0903         -DE/DX =    0.0                 !
 ! R4    R(1,5)                  1.5229         -DE/DX =    0.0002              !
 ! R5    R(5,6)                  1.0902         -DE/DX =    0.0                 !
 ! R6    R(5,7)                  1.0903         -DE/DX =    0.0                 !
 ! R7    R(5,8)                  1.0903         -DE/DX =    0.0                 !
 ! A1    A(2,1,3)              107.6294         -DE/DX =    0.0                 !
 ! A2    A(2,1,4)              107.6278         -DE/DX =    0.0                 !
 ! A3    A(2,1,5)              111.2615         -DE/DX =    0.0                 !
 ! A4    A(3,1,4)              107.6207         -DE/DX =    0.0                 !
 ! A5    A(3,1,5)              111.2594         -DE/DX =    0.0                 !
 ! A6    A(4,1,5)              111.2555         -DE/DX =    0.0                 !
 ! A7    A(1,5,6)              111.2575         -DE/DX =    0.0                 !
 ! A8    A(1,5,7)              111.2573         -DE/DX =    0.0                 !
 ! A9    A(1,5,8)              111.2526         -DE/DX =    0.0                 !
 ! A10   A(6,5,7)              107.6286         -DE/DX =    0.0                 !
 ! A11   A(6,5,8)              107.6322         -DE/DX =    0.0                 !
 ! A12   A(7,5,8)              107.6269         -DE/DX =    0.0                 !
 ! D1    D(2,1,5,6)             60.0622         -DE/DX =    0.0                 !
 ! D2    D(2,1,5,7)            -59.9392         -DE/DX =    0.0                 !
 ! D3    D(2,1,5,8)            180.065          -DE/DX =    0.0                 !
 ! D4    D(3,1,5,6)            180.0688         -DE/DX =    0.0                 !
 ! D5    D(3,1,5,7)             60.0674         -DE/DX =    0.0                 !
 ! D6    D(3,1,5,8)            -59.9285         -DE/DX =    0.0                 !
 ! D7    D(4,1,5,6)            -59.9397         -DE/DX =    0.0                 !
 ! D8    D(4,1,5,7)            180.0589         -DE/DX =    0.0                 !
 ! D9    D(4,1,5,8)             60.063          -DE/DX =    0.0                 !
 --------------------------------------------------------------------------------
 GradGradGradGradGradGradGradGradGradGradGradGradGradGradGradGradGradGrad

                          Input orientation:                          
 ---------------------------------------------------------------------
 Center     Atomic      Atomic             Coordinates (Angstroms)
 Number     Number       Type             X           Y           Z
 ---------------------------------------------------------------------
      1          6           0        0.000000   -0.000000   -0.000000
      2          1           0       -0.000000   -0.000000    1.090246
      3          1           0        1.039055    0.000000   -0.330194
      4          1           0       -0.451226    0.935983   -0.330169
      5          6           0       -0.754882   -1.201808   -0.552234
      6          1           0       -1.794227   -1.201129   -0.223011
      7          1           0       -0.304300   -2.137800   -0.221243
      8          1           0       -0.753816   -1.202277   -1.642488
 ---------------------------------------------------------------------
                    Distance matrix (angstroms):
                    1          2          3          4          5
     1  C    0.000000
     2  H    1.090246   0.000000
     3  H    1.090259   1.759911   0.000000
     4  H    1.090267   1.759900   1.759830   0.000000
     5  C    1.522876   2.170698   2.170681   2.170639   0.000000
     6  H    2.170644   2.527174   3.079235   2.526338   1.090241
     7  H    2.170653   2.526419   2.527185   3.079220   1.090257
     8  H    2.170593   3.079212   2.526256   2.527034   1.090254
                    6          7          8
     6  H    0.000000
     7  H    1.759897   0.000000
     8  H    1.759935   1.759888   0.000000
 Stoichiometry    C2H6
 Framework group  C1[X(C2H6)]
 Deg. of freedom    18
 Full point group                 C1      NOp   1
 Largest Abelian subgroup         C1      NOp   1
 Largest concise Abelian subgroup C1      NOp   1
                         Standard orientation:                         
 ---------------------------------------------------------------------
 Center     Atomic      Atomic             Coordinates (Angstroms)
 Number     Number       Type             X           Y           Z
 ---------------------------------------------------------------------
      1          6           0        0.761429   -0.000020   -0.000012
      2          1           0        1.156767   -0.983324   -0.255861
      3          1           0        1.156745    0.713294   -0.723595
      4          1           0        1.156695    0.270108    0.979517
      5          6           0       -0.761448   -0.000005    0.000006
      6          1           0       -1.156723   -0.712449    0.724442
      7          1           0       -1.156742   -0.271134   -0.979224
      8          1           0       -1.156630    0.983655    0.254758
 ---------------------------------------------------------------------
 Rotational constants (GHZ):     80.9523142     20.1129536     20.1127593
 B after Tr=    -0.000000   -0.000000    0.000000
         Rot=    1.000000   -0.000000    0.000000    0.000000 Ang=   0.00 deg.
 Final structure in terms of initial Z-matrix:
 C
 H,1,R1
 H,1,R2,2,A2
 H,1,R3,2,A3,3,D3,0
 C,1,BB,2,ANG1,3,DH1,0
 H,5,R21,1,ANG2,2,DH2,0
 H,5,R22,6,A22,1,DH3,0
 H,5,R23,6,A23,7,D23,0
      Variables:
 R1=1.09024633
 R2=1.09025856
 R3=1.09026663
 A2=107.62938929
 A3=107.62783657
 D3=-115.73813829
 R21=1.09024115
 R22=1.09025703
 R23=1.09025433
 A22=107.62860724
 A23=107.63216174
 D23=115.74705946
 BB=1.52287642
 ANG1=111.26153401
 DH1=122.13384697
 ANG2=111.25749536
 DH3=122.12819826
 DH2=60.06222297

 Test job not archived.
 1\1\GINC-NODE-5-12\FOpt\UwB97XD\Aug-CC-pVTZ\C2H6\CAVALLOTTI\24-May-202
 3\0\\#UWB97XD/AUG-CC-PVTZ #opt(calcfc,maxcyc=1) iop(7/33=1) guess=read
  geom=check int=ultra\\geom 0\\0,1\C,0.,0.,0.\H,0.,0.,1.0902463333\H,1
 .039055056,0.,-0.3301943793\H,-0.4512260047,0.9359834774,-0.3301686629
 \C,-0.754882465,-1.2018080522,-0.5522340503\H,-1.7942272449,-1.2011292
 315,-0.2230111135\H,-0.304300457,-2.1378000692,-0.2212428411\H,-0.7538
 163395,-1.2022768278,-1.6424877602\\Version=EM64L-G09RevD.01\State=1-A
 \HF=-79.8332129\S2=0.\S2-1=0.\S2A=0.\RMSD=3.318e-09\RMSF=2.750e-05\Dip
 ole=0.0000045,0.0000071,-0.0000141\Polar=0.,0.,0.,0.,0.,0.\Quadrupole=
 0.0468529,-0.1548973,0.1080444,-0.2091522,-0.0962693,-0.1531218\PG=C01
  [X(C2H6)]\\@


      SCIENCE SANS CONSCIENCE N'EST QUE RUINE DE L'AME.

                                                  -- RABELAIS
 Job cpu time:       0 days  0 hours 51 minutes 48.4 seconds.
 File lengths (MBytes):  RWF=    110 Int=      0 D2E=      0 Chk=      6 Scr=      1
 Normal termination of Gaussian 09 at Wed May 24 13:56:36 2023.
