
 Working directory              : /scratch/cc/140579/molpro.iCWC4XaBGW/
 Global scratch directory       : /scratch/cc/140579/molpro.iCWC4XaBGW/
 Wavefunction directory         : /home/chimica2/cavallotti/wfu/
 Main file repository           : /scratch/cc/140579/molpro.iCWC4XaBGW/

 id        : polimi

 Nodes     nprocs
 node-6-7     4
 GA implementation: MPI file
 GA implementation (serial work in mppx): MPI file

 Using customized tuning parameters: mindgm=1; mindgv=20; mindgc=4; mindgr=1; noblas=0; minvec=7
 default implementation of scratch files=sf  


 Variables initialized (1015), CPU time= 0.01 sec
  memory,        1000 ,m
  nosym
  geometry={angstrom
  C1
  H2   C1   R1
  H3   C1   R2   H2   A2
  H4   C1   R3   H2   A3   H3   D3
  H21 C1 BB H2 ANG1 H3 DH1
  }
  R1                             =    1.0878000000000001
  R2                             =    1.0878000000000001
  R3                             =    1.0878000000000001
  A2                             =    109.47600000000000
  A3                             =    109.46920000000000
  D3                             =    239.99270000000001
  BB                             =    1.0878000000000001
  ANG1                           =    109.47270000000000
  DH1                            =    120.00109999999999
 
 
                                                                                 !closed shell input
 
   basis=cc-pvdz
   hf
 
   basis=aug-cc-pvtz
   hf
   ccsd(t)
   en_cc = energy
 
   basis=cc-pcvtz
   hf
   {ccsd(t),maxit=50}
   en_ccsdt_tz=energy
 
   basis=cc-pcvtz
   hf
   {ccsd(t),maxit=50;core}
   en_ccsdtcore_tz=energy
 
   gdirect
   basis=aug-cc-pvtz
   hf
   df-mp2
   en_mp2_tz=energy
 
   basis=aug-cc-pvqz
   rhf
   df-mp2
   en_mp2_qz=energy
 
                                                                                 !Martin  extrapolation scheme
                                                                                 !Chemical Physics Letters 259 (1996) 669-678
                                                                                 ! E=A+B/(L+1/2)^4
 
   en_mp2_cbs=en_mp2_qz+0.5772*(en_mp2_qz-en_mp2_tz)
 
   CBSen = en_cc+(en_mp2_cbs-en_mp2_tz)+en_ccsdtcore_tz-en_ccsdt_tz
 
   put,molden,molpro.molden
 Commands initialized (834), CPU time= 0.02 sec, 672 directives.
 Default parameters read. Elapsed time= 0.13 sec

 Checking input...
 Passed
1


                                         ***  PROGRAM SYSTEM MOLPRO  ***
                                       Copyright, TTI GmbH Stuttgart, 2015
                                    Version 2022.2 linked Thu Sep 29 12:37:28 2022


 **********************************************************************************************************************************
 LABEL *                                                                                 
  64 bit mpp version                                                                     DATE: 02-Jun-23          TIME: 18:08:48  
 **********************************************************************************************************************************

 SHA1:             51306cdc306ce2a111a2867affebcb289530e0a7
 **********************************************************************************************************************************

 Memory per process:      1000 MW
 Total memory per node:   4000 MW

 GA preallocation disabled
 GA check disabled

 Variable memory set to 1000.0 MW

 ZSYMEL=NOSYM

 SETTING R1             =         1.08780000                                  
 SETTING R2             =         1.08780000                                  
 SETTING R3             =         1.08780000                                  
 SETTING A2             =       109.47600000                                  
 SETTING A3             =       109.46920000                                  
 SETTING D3             =       239.99270000                                  
 SETTING BB             =         1.08780000                                  
 SETTING ANG1           =       109.47270000                                  
 SETTING DH1            =       120.00110000                                  
 SETTING BASIS          =    CC-PVDZ


 Recomputing integrals since basis changed


 Using spherical harmonics

 Library entry C      S cc-pVDZ              selected for orbital group  1
 Library entry C      P cc-pVDZ              selected for orbital group  1
 Library entry C      D cc-pVDZ              selected for orbital group  1
 Library entry H      S cc-pVDZ              selected for orbital group  2
 Library entry H      P cc-pVDZ              selected for orbital group  2


 PROGRAM * SEWARD (Integral evaluation for generally contracted gaussian basis sets)     Author: Roland Lindh, 1990

 Geometry written to block  1 of record 700

 Orientation using atomic masses  
 Molecule type: Asymmetric top
 Rotational constants:     158.8984616    158.8885284    158.9039777 GHz  (calculated with average atomic masses)

 Point group  C1  



 ATOMIC COORDINATES

 NR  ATOM    CHARGE       X              Y              Z

   1  C1      6.00    0.000019328   -0.000006817    0.000007099
   2  H2      1.00    1.582016473    0.509973003   -1.209487917
   3  H3      1.00    0.709041508   -0.676199032    1.807138587
   4  H4      1.00   -1.101954925   -1.482490555   -0.901972549
   5  H21     1.00   -1.189333381    1.648797813    0.304237281

 Bond lengths in Bohr (Angstrom)

 1-2  2.055644078  1-3  2.055644078  1-4  2.055644078  1-5  2.055644078
     ( 1.087800000)     ( 1.087800000)     ( 1.087800000)     ( 1.087800000)

 Bond angles

  2-1-3  109.47600000   2-1-4  109.46920000   2-1-5  109.47270000   3-1-4  109.47580150

  3-1-5  109.46898920   4-1-5  109.46463255

 NUCLEAR CHARGE:                   10
 NUMBER OF PRIMITIVE AOS:          55
 NUMBER OF SYMMETRY AOS:           54
 NUMBER OF CONTRACTIONS:           34   (   34A   )
 NUMBER OF INNER CORE ORBITALS:     0   (    0A   )
 NUMBER OF OUTER CORE ORBITALS:     1   (    1A   )
 NUMBER OF VALENCE ORBITALS:        8   (    8A   )


 NUCLEAR REPULSION ENERGY   13.46256140


 Eigenvalues of metric

         1 0.122E-01 0.368E-01 0.368E-01 0.368E-01 0.503E-01 0.571E-01 0.571E-01 0.571E-01


 Contracted 2-electron integrals neglected if value below      1.0D-11
 AO integral compression algorithm  1   Integral accuracy      1.0D-11

     2.097 MB (compressed) written to integral file ( 67.9%)

     Node minimum: 0.524 MB, node maximum: 0.524 MB


 NUMBER OF SORTED TWO-ELECTRON INTEGRALS:      44104.     BUFFER LENGTH:  32768
 NUMBER OF SEGMENTS:   1  SEGMENT LENGTH:      44104      RECORD LENGTH: 524288

 Memory used in sort:       0.60 MW

 SORT1 READ      219389. AND WROTE       42790. INTEGRALS IN      1 RECORDS. CPU TIME:     0.01 SEC, REAL TIME:     0.02 SEC
 SORT2 READ      172173. AND WROTE      177310. INTEGRALS IN      8 RECORDS. CPU TIME:     0.00 SEC, REAL TIME:     0.01 SEC

 Node minimum:       44104.  Node maximum:       44551. integrals

 OPERATOR DM      FOR CENTER  0  COORDINATES:    0.000000    0.000000    0.000000


 **********************************************************************************************************************************
 DATASETS  * FILE   NREC   LENGTH (MB)   RECORD NAMES
              1      18       28.65       500      610      700      900      950      970     1000      129      960     1100   
                                          VAR    BASINP    GEOM    SYMINP    ZMAT    AOBASIS   BASIS     P2S    ABASIS      S 
                                         1400     1410     1200     1210     1080     1600     1650     1700   
                                           T        V       H0       H01     AOSYM     SMH    MOLCAS    OPER   

 PROGRAMS   *        TOTAL       INT
 CPU TIMES  *         0.45      0.28
 REAL TIME  *         1.10 SEC
 DISK USED  *        28.95 MB (local),      132.71 MB (total)
 GA USED    *         0.00 MB       (max)       0.00 MB       (current)
 **********************************************************************************************************************************


 Program * Restricted Hartree-Fock

 Orbital guess generated from atomic densities. Full valence occupancy:    9

 Initial occupancy:   5

 NELEC=   10   SYM=1   MS2= 0   THRE=1.0D-08   THRD=3.2D-06   THRG=3.2D-06  HFMA2=F  DIIS_START=2   DIIS_MAX=10   DIIS_INCORE=F

 Level shifts:    0.00 (CLOSED)    0.00 (OPEN)    0.30 (GAP_MIN)

 ITER           ETOT              DE          GRAD        DDIFF     DIIS  NEXP   TIME(IT)  TIME(TOT)  DIAG
   1      -40.18025763     -40.18025763     0.00D+00     0.16D+00     0     0       0.00      0.00    start
   2      -40.19649733      -0.01623970     0.91D-02     0.19D-01     1     0       0.00      0.00    diag
   3      -40.19842334      -0.00192601     0.33D-02     0.65D-02     2     0       0.00      0.00    diag
   4      -40.19868525      -0.00026190     0.89D-03     0.23D-02     3     0       0.00      0.00    diag
   5      -40.19868752      -0.00000227     0.94D-04     0.33D-03     4     0       0.00      0.00    diag
   6      -40.19868753      -0.00000001     0.56D-05     0.30D-04     5     0       0.01      0.01    diag
   7      -40.19868753      -0.00000000     0.27D-06     0.91D-06     6     0       0.00      0.01    diag
   8      -40.19868753      -0.00000000     0.25D-07     0.49D-07     0     0       0.00      0.01    fixocc

 Final occupancy:   5

 !RHF STATE 1.1 Energy                -40.198687528448
  RHF One-electron energy             -79.747548439735
  RHF Two-electron energy              26.086299511636
  RHF Kinetic energy                   40.115721026850
  RHF Nuclear energy                   13.462561399651
  RHF Virial quotient                  -1.002068179244

 !RHF STATE 1.1 Dipole moment          -0.00001853     0.00000654    -0.00000681
 Dipole moment /Debye                  -0.00004710     0.00001661    -0.00001730

 Orbital energies:

           1.1          2.1          3.1          4.1          5.1          6.1          7.1
    -11.215196    -0.942926    -0.543132    -0.543121    -0.543101     0.193299     0.274362


 HOMO      5.1    -0.543101 =     -14.7785eV
 LUMO      6.1     0.193299 =       5.2599eV
 LUMO-HOMO         0.736400 =      20.0385eV

 Orbitals saved in record  2100.2


 **********************************************************************************************************************************
 DATASETS  * FILE   NREC   LENGTH (MB)   RECORD NAMES
              1      18       28.65       500      610      700      900      950      970     1000      129      960     1100   
                                          VAR    BASINP    GEOM    SYMINP    ZMAT    AOBASIS   BASIS     P2S    ABASIS      S 
                                         1400     1410     1200     1210     1080     1600     1650     1700   
                                           T        V       H0       H01     AOSYM     SMH    MOLCAS    OPER   

              2       4        0.42       700     1000      520     2100   
                                         GEOM     BASIS   MCVARS     RHF  

 PROGRAMS   *        TOTAL    HF-SCF       INT
 CPU TIMES  *         0.47      0.02      0.28
 REAL TIME  *         1.15 SEC
 DISK USED  *        29.17 MB (local),      133.58 MB (total)
 GA USED    *         0.00 MB       (max)       0.00 MB       (current)
 **********************************************************************************************************************************
 SETTING BASIS          =    AUG-CC-PVTZ


 Recomputing integrals since basis changed


 Using spherical harmonics

 Library entry C      S aug-cc-pVTZ          selected for orbital group  1
 Library entry C      P aug-cc-pVTZ          selected for orbital group  1
 Library entry C      D aug-cc-pVTZ          selected for orbital group  1
 Library entry C      F aug-cc-pVTZ          selected for orbital group  1
 Library entry H      S aug-cc-pVTZ          selected for orbital group  2
 Library entry H      P aug-cc-pVTZ          selected for orbital group  2
 Library entry H      D aug-cc-pVTZ          selected for orbital group  2


 PROGRAM * SEWARD (Integral evaluation for generally contracted gaussian basis sets)     Author: Roland Lindh, 1990

 Geometry written to block  1 of record 700

 Orientation using atomic masses  
 Molecule type: Asymmetric top
 Rotational constants:     158.8984616    158.8885284    158.9039777 GHz  (calculated with average atomic masses)

 Point group  C1  



 ATOMIC COORDINATES

 NR  ATOM    CHARGE       X              Y              Z

   1  C1      6.00    0.000019328   -0.000006817    0.000007099
   2  H2      1.00    1.582016473    0.509973003   -1.209487917
   3  H3      1.00    0.709041508   -0.676199032    1.807138587
   4  H4      1.00   -1.101954925   -1.482490555   -0.901972549
   5  H21     1.00   -1.189333381    1.648797813    0.304237281

 Bond lengths in Bohr (Angstrom)

 1-2  2.055644078  1-3  2.055644078  1-4  2.055644078  1-5  2.055644078
     ( 1.087800000)     ( 1.087800000)     ( 1.087800000)     ( 1.087800000)

 Bond angles

  2-1-3  109.47600000   2-1-4  109.46920000   2-1-5  109.47270000   3-1-4  109.47580150

  3-1-5  109.46898920   4-1-5  109.46463255

 NUCLEAR CHARGE:                   10
 NUMBER OF PRIMITIVE AOS:         175
 NUMBER OF SYMMETRY AOS:          158
 NUMBER OF CONTRACTIONS:          138   (  138A   )
 NUMBER OF INNER CORE ORBITALS:     0   (    0A   )
 NUMBER OF OUTER CORE ORBITALS:     1   (    1A   )
 NUMBER OF VALENCE ORBITALS:        8   (    8A   )


 NUCLEAR REPULSION ENERGY   13.46256140


 Eigenvalues of metric

         1 0.812E-04 0.118E-03 0.118E-03 0.118E-03 0.891E-03 0.891E-03 0.891E-03 0.998E-03


 Contracted 2-electron integrals neglected if value below      1.0D-11
 AO integral compression algorithm  1   Integral accuracy      1.0D-11

     243.794 MB (compressed) written to integral file ( 54.6%)

     Node minimum: 56.361 MB, node maximum: 64.225 MB


 NUMBER OF SORTED TWO-ELECTRON INTEGRALS:   11496012.     BUFFER LENGTH:  32768
 NUMBER OF SEGMENTS:   1  SEGMENT LENGTH:   11496012      RECORD LENGTH: 524288

 Memory used in sort:      12.05 MW

 SORT1 READ    55731597. AND WROTE    11331344. INTEGRALS IN     33 RECORDS. CPU TIME:     1.01 SEC, REAL TIME:     1.34 SEC
 SORT2 READ    45339173. AND WROTE    45998436. INTEGRALS IN    956 RECORDS. CPU TIME:     0.20 SEC, REAL TIME:     0.47 SEC

 Node minimum:    11496012.  Node maximum:    11503206. integrals

 OPERATOR DM      FOR CENTER  0  COORDINATES:    0.000000    0.000000    0.000000


 **********************************************************************************************************************************
 DATASETS  * FILE   NREC   LENGTH (MB)   RECORD NAMES
              1      18       29.30       500      610      700      900      950      970     1001      129      960     1100   
                                          VAR    BASINP    GEOM    SYMINP    ZMAT    AOBASIS   BASIS     P2S    ABASIS      S 
                                         1400     1410     1200     1210     1080     1600     1650     1700   
                                           T        V       H0       H01     AOSYM     SMH    MOLCAS    OPER   

              2       5        0.45       700     1000      520     2100     1001   
                                         GEOM     BASIS   MCVARS     RHF     BASIS   

 PROGRAMS   *        TOTAL       INT    HF-SCF       INT
 CPU TIMES  *         2.42      1.94      0.02      0.28
 REAL TIME  *         4.01 SEC
 DISK USED  *        29.80 MB (local),      864.58 MB (total)
 GA USED    *         0.00 MB       (max)       0.00 MB       (current)
 **********************************************************************************************************************************


 Program * Restricted Hartree-Fock

 Molecular orbitals read from record     2100.2  Type=RHF/CANONICAL  

 Present basis size:      138
 Previous basis size:      34
 Previous occupation:       5
 Previous closed-shells:    5
 Previous core-orbitals:    1
 Present occupation:        5
 Present closed-shells:     5
 Present core-orbitals:     1
 Wavefunction symmetry:    1   Singlet 

 Orbital overlap <old|new>:  < 1.1| 1.1> = 0.999999   < 2.1| 2.1> = 0.999969   < 3.1| 3.1> = 0.999964   < 4.1| 4.1> = 0.999964
                             < 5.1| 5.1> = 0.999964


 Initial occupancy:   5

 NELEC=   10   SYM=1   MS2= 0   THRE=1.0D-08   THRD=3.2D-06   THRG=3.2D-06  HFMA2=F  DIIS_START=2   DIIS_MAX=10   DIIS_INCORE=F

 Level shifts:    0.00 (CLOSED)    0.00 (OPEN)    0.30 (GAP_MIN)

 ITER           ETOT              DE          GRAD        DDIFF     DIIS  NEXP   TIME(IT)  TIME(TOT)  DIAG
   1      -40.20556839     -40.20556839     0.00D+00     0.46D-01     0     0       0.11      0.12    start
   2      -40.21348017      -0.00791178     0.49D-02     0.94D-02     1     0       0.10      0.22    diag
   3      -40.21361126      -0.00013109     0.52D-03     0.15D-02     2     0       0.10      0.32    diag
   4      -40.21361496      -0.00000370     0.64D-04     0.24D-03     3     0       0.10      0.42    diag
   5      -40.21361541      -0.00000045     0.21D-04     0.66D-04     4     0       0.12      0.54    diag
   6      -40.21361544      -0.00000003     0.37D-05     0.55D-05     5     0       0.09      0.63    diag
   7      -40.21361544      -0.00000000     0.49D-06     0.19D-05     6     0       0.12      0.75    diag
   8      -40.21361544      -0.00000000     0.29D-07     0.97D-07     0     0       0.10      0.85    fixocc

 Final occupancy:   5

 !RHF STATE 1.1 Energy                -40.213615442143
  RHF One-electron energy             -79.783009117504
  RHF Two-electron energy              26.106832275710
  RHF Kinetic energy                   40.161028366643
  RHF Nuclear energy                   13.462561399651
  RHF Virial quotient                  -1.001309405601

 !RHF STATE 1.1 Dipole moment          -0.00001752     0.00000618    -0.00000643
 Dipole moment /Debye                  -0.00004453     0.00001571    -0.00001635

 Orbital energies:

           1.1          2.1          3.1          4.1          5.1          6.1          7.1
    -11.206212    -0.943264    -0.545079    -0.545068    -0.545049     0.030800     0.050464


 HOMO      5.1    -0.545049 =     -14.8315eV
 LUMO      6.1     0.030800 =       0.8381eV
 LUMO-HOMO         0.575849 =      15.6696eV

 Orbitals saved in record  2101.2


 **********************************************************************************************************************************
 DATASETS  * FILE   NREC   LENGTH (MB)   RECORD NAMES
              1      18       29.30       500      610      700      900      950      970     1001      129      960     1100   
                                          VAR    BASINP    GEOM    SYMINP    ZMAT    AOBASIS   BASIS     P2S    ABASIS      S 
                                         1400     1410     1200     1210     1080     1600     1650     1700   
                                           T        V       H0       H01     AOSYM     SMH    MOLCAS    OPER   

              2       6        0.84       700     1000      520     2100     1001     2101   
                                         GEOM     BASIS   MCVARS     RHF     BASIS     RHF  

 PROGRAMS   *        TOTAL    HF-SCF       INT    HF-SCF       INT
 CPU TIMES  *         3.28      0.86      1.94      0.02      0.28
 REAL TIME  *         5.47 SEC
 DISK USED  *        31.29 MB (local),      870.54 MB (total)
 GA USED    *         0.00 MB       (max)       0.00 MB       (current)
 **********************************************************************************************************************************


 PROGRAM * CCSD (Closed-shell coupled cluster)     Authors: C. Hampel, H.-J. Werner, 1991, M. Deegan, P.J. Knowles, 1992


 Convergence thresholds:  THRVAR = 1.00D-08  THRDEN = 1.00D-06

 CCSD(T)     terms to be evaluated (factor= 1.000)


 Number of core orbitals:           1 (   1 )
 Number of closed-shell orbitals:   4 (   4 )
 Number of external orbitals:     133 ( 133 )

 Molecular orbitals read from record     2101.2  Type=RHF/CANONICAL  

 Number of N-1 electron functions:               4
 Number of N-2 electron functions:              10
 Number of singly external CSFs:               532
 Number of doubly external CSFs:            141778
 Total number of CSFs:                      142311

 Length of J-op  integral file:               0.00 MB
 Length of K-op  integral file:               1.31 MB
 Length of 3-ext integral record:             0.00 MB

 Memory could be reduced to 15.88 Mwords without degradation in triples

 Integral transformation finished. Total CPU:   0.55 sec, npass=  1  Memory used:   7.33 MW

 Reference energy:                    -40.21361544

 MP2 singlet pair energy:              -0.14589867
 MP2 triplet pair energy:              -0.05493832
 MP2 correlation energy:               -0.20083698
 MP2 total energy:                    -40.41445243

 SCS-MP2 correlation energy:           -0.20926224   (PS=  1.200000  PT=  0.333333)
 SCS-MP2 total energy:                -40.42287768

 ITER.      SQ.NORM     CORR.ENERGY   TOTAL ENERGY   ENERGY CHANGE        DEN1      VAR(S)    VAR(P)  DIIS     TIME  TIME/IT
   1      1.07239322    -0.21953512   -40.43315056    -0.01869814    -0.01308151  0.48D-03  0.11D-02  1  1     0.76     0.29
   2      1.07815279    -0.22068832   -40.43430376    -0.00115320    -0.00582907  0.14D-04  0.78D-04  2  2     0.98     0.32
   3      1.07949477    -0.22074973   -40.43436517    -0.00006141    -0.00084832  0.16D-05  0.54D-05  3  3     1.20     0.33
   4      1.07982891    -0.22075975   -40.43437519    -0.00001001    -0.00014033  0.87D-07  0.25D-06  4  4     1.41     0.34
   5      1.07987857    -0.22075887   -40.43437432     0.00000087    -0.00002008  0.53D-08  0.18D-07  5  5     1.64     0.34
   6      1.07988325    -0.22075803   -40.43437347     0.00000084    -0.00000153  0.37D-09  0.12D-08  6  6     1.85     0.35

 Norm of t1 vector:      0.03006292      S-energy:    -0.00000036      T1 diagnostic:  0.00751573
                                                                       D1 diagnostic:  0.01202265
                                                                       D2 diagnostic:  0.13520288 (internal)


 Total CPU time for triples:      1.00 sec


 RESULTS
 =======

  Reference energy                    -40.213615442143
  CCSD singlet pair energy             -0.167545361886
  CCSD triplet pair energy             -0.053212311370
  CCSD correlation energy              -0.220758031201

  Triples (T) contribution             -0.006545654725
  Total correlation energy             -0.227303685926

  CCSD total energy                   -40.434373473343
  CCSD[T] energy                      -40.441114093457
  CCSD-T energy                       -40.440845724064
 !CCSD(T) total energy                -40.440919128069

 Timing summary (sec):

 STEP                 CPU(USER)    SYS     CPU(TOT)    WALL
 Transformation          0.57      0.10      0.67      0.90
 CCSD iterations         1.29      0.39      1.68      2.13
 Triples                 1.00      0.07      1.07      1.13

 Program statistics:

 Available memory in ccsd:               999999931
 Min. memory needed in ccsd:                660834
 Max. memory used in ccsd:                  762080
 Max. memory used in cckext:                523683 ( 6 integral passes)



 **********************************************************************************************************************************
 DATASETS  * FILE   NREC   LENGTH (MB)   RECORD NAMES
              1      19       67.94       500      610      700      900      950      970     1001      129      960     1100   
                                          VAR    BASINP    GEOM    SYMINP    ZMAT    AOBASIS   BASIS     P2S    ABASIS      S 
                                         1400     1410     1200     1210     1080     1600     1650     1700     1380   
                                           T        V       H0       H01     AOSYM     SMH    MOLCAS    OPER     JKOP   

              2       6        0.84       700     1000      520     2100     1001     2101   
                                         GEOM     BASIS   MCVARS     RHF     BASIS     RHF  

 PROGRAMS   *        TOTAL   CCSD(T)    HF-SCF       INT    HF-SCF       INT
 CPU TIMES  *         6.19      2.91      0.86      1.94      0.02      0.28
 REAL TIME  *         9.70 SEC
 DISK USED  *        85.08 MB (local),        1.01 GB (total)
 SF USED    *        52.34 MB
 GA USED    *         0.00 MB       (max)       0.00 MB       (current)
 **********************************************************************************************************************************
 SETTING EN_CC          =       -40.44091913  AU                              
 SETTING BASIS          =    CC-PCVTZ


 Recomputing integrals since basis changed


 Using spherical harmonics

 Library entry C      S cc-pCVTZ             selected for orbital group  1
 Library entry C      P cc-pCVTZ             selected for orbital group  1
 Library entry C      D cc-pCVTZ             selected for orbital group  1
 Library entry C      F cc-pCVTZ             selected for orbital group  1
 Library entry H      S cc-pVTZ              selected for orbital group  2
 Library entry H      P cc-pVTZ              selected for orbital group  2
 Library entry H      D cc-pVTZ              selected for orbital group  2


 PROGRAM * SEWARD (Integral evaluation for generally contracted gaussian basis sets)     Author: Roland Lindh, 1990

 Geometry written to block  1 of record 700

 Orientation using atomic masses  
 Molecule type: Asymmetric top
 Rotational constants:     158.8984616    158.8885284    158.9039777 GHz  (calculated with average atomic masses)

 Point group  C1  



 ATOMIC COORDINATES

 NR  ATOM    CHARGE       X              Y              Z

   1  C1      6.00    0.000019328   -0.000006817    0.000007099
   2  H2      1.00    1.582016473    0.509973003   -1.209487917
   3  H3      1.00    0.709041508   -0.676199032    1.807138587
   4  H4      1.00   -1.101954925   -1.482490555   -0.901972549
   5  H21     1.00   -1.189333381    1.648797813    0.304237281

 Bond lengths in Bohr (Angstrom)

 1-2  2.055644078  1-3  2.055644078  1-4  2.055644078  1-5  2.055644078
     ( 1.087800000)     ( 1.087800000)     ( 1.087800000)     ( 1.087800000)

 Bond angles

  2-1-3  109.47600000   2-1-4  109.46920000   2-1-5  109.47270000   3-1-4  109.47580150

  3-1-5  109.46898920   4-1-5  109.46463255

 NUCLEAR CHARGE:                   10
 NUMBER OF PRIMITIVE AOS:         129
 NUMBER OF SYMMETRY AOS:          119
 NUMBER OF CONTRACTIONS:           99   (   99A   )
 NUMBER OF INNER CORE ORBITALS:     0   (    0A   )
 NUMBER OF OUTER CORE ORBITALS:     1   (    1A   )
 NUMBER OF VALENCE ORBITALS:        8   (    8A   )


 NUCLEAR REPULSION ENERGY   13.46256140


 Eigenvalues of metric

         1 0.444E-03 0.184E-02 0.184E-02 0.184E-02 0.358E-02 0.968E-02 0.968E-02 0.968E-02


 Contracted 2-electron integrals neglected if value below      1.0D-11
 AO integral compression algorithm  1   Integral accuracy      1.0D-11

     62.915 MB (compressed) written to integral file ( 54.0%)

     Node minimum: 14.156 MB, node maximum: 17.039 MB


 NUMBER OF SORTED TWO-ELECTRON INTEGRALS:    3062812.     BUFFER LENGTH:  32768
 NUMBER OF SEGMENTS:   1  SEGMENT LENGTH:    3062812      RECORD LENGTH: 524288

 Memory used in sort:       3.62 MW

 SORT1 READ    14645708. AND WROTE     2958063. INTEGRALS IN      9 RECORDS. CPU TIME:     0.25 SEC, REAL TIME:     0.35 SEC
 SORT2 READ    11834293. AND WROTE    12253725. INTEGRALS IN    248 RECORDS. CPU TIME:     0.06 SEC, REAL TIME:     0.15 SEC

 Node minimum:     3061575.  Node maximum:     3065288. integrals

 OPERATOR DM      FOR CENTER  0  COORDINATES:    0.000000    0.000000    0.000000


 **********************************************************************************************************************************
 DATASETS  * FILE   NREC   LENGTH (MB)   RECORD NAMES
              1      18       28.97       500      610      700      900      950      970     1002      129      960     1100   
                                          VAR    BASINP    GEOM    SYMINP    ZMAT    AOBASIS   BASIS     P2S    ABASIS      S 
                                         1400     1410     1200     1210     1080     1600     1650     1700   
                                           T        V       H0       H01     AOSYM     SMH    MOLCAS    OPER   

              2       7        1.08       700     1000      520     2100     1001     2101     1002   
                                         GEOM     BASIS   MCVARS     RHF     BASIS     RHF     BASIS   

 PROGRAMS   *        TOTAL       INT   CCSD(T)    HF-SCF       INT    HF-SCF       INT
 CPU TIMES  *         7.04      0.84      2.91      0.86      1.94      0.02      0.28
 REAL TIME  *        10.93 SEC
 DISK USED  *        85.08 MB (local),        1.01 GB (total)
 SF USED    *        52.34 MB
 GA USED    *         0.00 MB       (max)       0.00 MB       (current)
 **********************************************************************************************************************************


 Program * Restricted Hartree-Fock

 Molecular orbitals read from record     2101.2  Type=RHF/CANONICAL  

 Present basis size:       99
 Previous basis size:     138
 Previous occupation:       5
 Previous closed-shells:    5
 Previous core-orbitals:    1
 Present occupation:        5
 Present closed-shells:     5
 Present core-orbitals:     1
 Wavefunction symmetry:    1   Singlet 

 Orbital overlap <old|new>:  < 1.1| 1.1> = 1.000000   < 2.1| 2.1> = 0.999997   < 3.1| 3.1> = 0.999989   < 4.1| 4.1> = 0.999989
                             < 5.1| 5.1> = 0.999989


 Initial occupancy:   5

 NELEC=   10   SYM=1   MS2= 0   THRE=1.0D-08   THRD=3.2D-06   THRG=3.2D-06  HFMA2=F  DIIS_START=2   DIIS_MAX=10   DIIS_INCORE=F

 Level shifts:    0.00 (CLOSED)    0.00 (OPEN)    0.30 (GAP_MIN)

 ITER           ETOT              DE          GRAD        DDIFF     DIIS  NEXP   TIME(IT)  TIME(TOT)  DIAG
   1      -40.21331345     -40.21331345     0.00D+00     0.63D-01     0     0       0.03      0.04    start
   2      -40.21355432      -0.00024087     0.28D-02     0.28D-02     1     0       0.03      0.07    diag
   3      -40.21355548      -0.00000116     0.70D-04     0.31D-03     2     0       0.03      0.10    diag
   4      -40.21355552      -0.00000003     0.70D-05     0.38D-04     3     0       0.03      0.13    diag
   5      -40.21355552      -0.00000000     0.17D-05     0.33D-05     4     0       0.03      0.16    diag
   6      -40.21355552      -0.00000000     0.59D-06     0.14D-05     5     0       0.02      0.18    diag
   7      -40.21355552      -0.00000000     0.84D-07     0.14D-06     0     0       0.03      0.21    diag

 Final occupancy:   5

 !RHF STATE 1.1 Energy                -40.213555518649
  RHF One-electron energy             -79.783323729956
  RHF Two-electron energy              26.107206811656
  RHF Kinetic energy                   40.169956654162
  RHF Nuclear energy                   13.462561399651
  RHF Virial quotient                  -1.001085360008

 !RHF STATE 1.1 Dipole moment          -0.00001775     0.00000626    -0.00000652
 Dipole moment /Debye                  -0.00004511     0.00001591    -0.00001657

 Orbital energies:

           1.1          2.1          3.1          4.1          5.1          6.1          7.1
    -11.205661    -0.943340    -0.545165    -0.545154    -0.545135     0.142935     0.229506


 HOMO      5.1    -0.545135 =     -14.8339eV
 LUMO      6.1     0.142935 =       3.8894eV
 LUMO-HOMO         0.688069 =      18.7233eV

 Orbitals saved in record  2102.2


 **********************************************************************************************************************************
 DATASETS  * FILE   NREC   LENGTH (MB)   RECORD NAMES
              1      18       28.97       500      610      700      900      950      970     1002      129      960     1100   
                                          VAR    BASINP    GEOM    SYMINP    ZMAT    AOBASIS   BASIS     P2S    ABASIS      S 
                                         1400     1410     1200     1210     1080     1600     1650     1700   
                                           T        V       H0       H01     AOSYM     SMH    MOLCAS    OPER   

              2       8        1.33       700     1000      520     2100     1001     2101     1002     2102   
                                         GEOM     BASIS   MCVARS     RHF     BASIS     RHF     BASIS     RHF  

 PROGRAMS   *        TOTAL    HF-SCF       INT   CCSD(T)    HF-SCF       INT    HF-SCF       INT
 CPU TIMES  *         7.25      0.21      0.84      2.91      0.86      1.94      0.02      0.28
 REAL TIME  *        11.33 SEC
 DISK USED  *        85.08 MB (local),        1.01 GB (total)
 SF USED    *        52.34 MB
 GA USED    *         0.00 MB       (max)       0.00 MB       (current)
 **********************************************************************************************************************************


 PROGRAM * CCSD (Closed-shell coupled cluster)     Authors: C. Hampel, H.-J. Werner, 1991, M. Deegan, P.J. Knowles, 1992


 Convergence thresholds:  THRVAR = 1.00D-08  THRDEN = 1.00D-06

 CCSD(T)     terms to be evaluated (factor= 1.000)


 Number of core orbitals:           1 (   1 )
 Number of closed-shell orbitals:   4 (   4 )
 Number of external orbitals:      94 (  94 )

 Molecular orbitals read from record     2102.2  Type=RHF/CANONICAL (state 1.1)

 Number of N-1 electron functions:               4
 Number of N-2 electron functions:              10
 Number of singly external CSFs:               376
 Number of doubly external CSFs:             70876
 Total number of CSFs:                       71253

 Length of J-op  integral file:               0.00 MB
 Length of K-op  integral file:               0.67 MB
 Length of 3-ext integral record:             0.00 MB

 Memory could be reduced to 5.72 Mwords without degradation in triples

 Integral transformation finished. Total CPU:   0.16 sec, npass=  1  Memory used:   2.82 MW

 Reference energy:                    -40.21355552

 MP2 singlet pair energy:              -0.14451514
 MP2 triplet pair energy:              -0.05470437
 MP2 correlation energy:               -0.19921952
 MP2 total energy:                    -40.41277504

 SCS-MP2 correlation energy:           -0.20745645   (PS=  1.200000  PT=  0.333333)
 SCS-MP2 total energy:                -40.42101197

 ITER.      SQ.NORM     CORR.ENERGY   TOTAL ENERGY   ENERGY CHANGE        DEN1      VAR(S)    VAR(P)  DIIS     TIME  TIME/IT
   1      1.07170023    -0.21801926   -40.43157478    -0.01879974    -0.01316075  0.49D-03  0.11D-02  1  1     0.24     0.10
   2      1.07721974    -0.21914152   -40.43269704    -0.00112226    -0.00569633  0.13D-04  0.82D-04  2  2     0.32     0.11
   3      1.07866385    -0.21920195   -40.43275747    -0.00006043    -0.00097507  0.11D-05  0.60D-05  3  3     0.39     0.12
   4      1.07899843    -0.21921571   -40.43277123    -0.00001377    -0.00013929  0.58D-07  0.25D-06  4  4     0.45     0.12
   5      1.07904687    -0.21921493   -40.43277045     0.00000078    -0.00002237  0.35D-08  0.14D-07  5  5     0.53     0.12
   6      1.07904929    -0.21921413   -40.43276965     0.00000081    -0.00000089  0.81D-10  0.72D-09  6  6     0.60     0.12

 Norm of t1 vector:      0.02921103      S-energy:    -0.00000009      T1 diagnostic:  0.00730276
                                                                       D1 diagnostic:  0.01163501
                                                                       D2 diagnostic:  0.13464914 (internal)


 Total CPU time for triples:      0.34 sec


 RESULTS
 =======

  Reference energy                    -40.213555518649
  CCSD singlet pair energy             -0.166301208857
  CCSD triplet pair energy             -0.052912834014
  CCSD correlation energy              -0.219214128124

  Triples (T) contribution             -0.006346109586
  Total correlation energy             -0.225560237710

  CCSD total energy                   -40.432769646773
  CCSD[T] energy                      -40.439317834888
  CCSD-T energy                       -40.439040400874
 !CCSD(T) total energy                -40.439115756359

 Timing summary (sec):

 STEP                 CPU(USER)    SYS     CPU(TOT)    WALL
 Transformation          0.17      0.04      0.21      0.29
 CCSD iterations         0.43      0.12      0.55      0.76
 Triples                 0.34      0.02      0.36      0.39

 Program statistics:

 Available memory in ccsd:               999999926
 Min. memory needed in ccsd:                335262
 Max. memory used in ccsd:                  384794
 Max. memory used in cckext:                273524 ( 6 integral passes)



 **********************************************************************************************************************************
 DATASETS  * FILE   NREC   LENGTH (MB)   RECORD NAMES
              1      19       43.05       500      610      700      900      950      970     1002      129      960     1100   
                                          VAR    BASINP    GEOM    SYMINP    ZMAT    AOBASIS   BASIS     P2S    ABASIS      S 
                                         1400     1410     1200     1210     1080     1600     1650     1700     1380   
                                           T        V       H0       H01     AOSYM     SMH    MOLCAS    OPER     JKOP   

              2       8        1.33       700     1000      520     2100     1001     2101     1002     2102   
                                         GEOM     BASIS   MCVARS     RHF     BASIS     RHF     BASIS     RHF  

 PROGRAMS   *        TOTAL   CCSD(T)    HF-SCF       INT   CCSD(T)    HF-SCF       INT    HF-SCF       INT
 CPU TIMES  *         8.23      0.97      0.21      0.84      2.91      0.86      1.94      0.02      0.28
 REAL TIME  *        12.83 SEC
 DISK USED  *        85.08 MB (local),        1.01 GB (total)
 SF USED    *        52.34 MB
 GA USED    *         0.00 MB       (max)       0.00 MB       (current)
 **********************************************************************************************************************************
 SETTING EN_CCSDT_TZ    =       -40.43911576  AU                              
 SETTING BASIS          =    CC-PCVTZ


 Program * Restricted Hartree-Fock

 Molecular orbitals read from record     2102.2  Type=RHF/CANONICAL (state 1.1)

 Initial occupancy:   5

 NELEC=   10   SYM=1   MS2= 0   THRE=1.0D-08   THRD=3.2D-06   THRG=3.2D-06  HFMA2=F  DIIS_START=2   DIIS_MAX=10   DIIS_INCORE=F

 Level shifts:    0.00 (CLOSED)    0.00 (OPEN)    0.30 (GAP_MIN)

 ITER           ETOT              DE          GRAD        DDIFF     DIIS  NEXP   TIME(IT)  TIME(TOT)  DIAG
   1      -40.21355552     -40.21355552     0.00D+00     0.63D-01     0     0       0.02      0.02    start
   2      -40.21355552      -0.00000000     0.29D-07     0.41D-07     1     0       0.03      0.05    diag

 Final occupancy:   5

 !RHF STATE 1.1 Energy                -40.213555518650
  RHF One-electron energy             -79.783324179542
  RHF Two-electron energy              26.107207261241
  RHF Kinetic energy                   40.169955839539
  RHF Nuclear energy                   13.462561399651
  RHF Virial quotient                  -1.001085380310

 !RHF STATE 1.1 Dipole moment          -0.00001775     0.00000626    -0.00000652
 Dipole moment /Debye                  -0.00004511     0.00001591    -0.00001657

 Orbital energies:

           1.1          2.1          3.1          4.1          5.1          6.1          7.1
    -11.205661    -0.943340    -0.545165    -0.545154    -0.545135     0.142935     0.229506


 HOMO      5.1    -0.545135 =     -14.8339eV
 LUMO      6.1     0.142935 =       3.8894eV
 LUMO-HOMO         0.688069 =      18.7233eV

 Orbitals saved in record  2103.2


 **********************************************************************************************************************************
 DATASETS  * FILE   NREC   LENGTH (MB)   RECORD NAMES
              1      19       43.05       500      610      700      900      950      970     1002      129      960     1100   
                                          VAR    BASINP    GEOM    SYMINP    ZMAT    AOBASIS   BASIS     P2S    ABASIS      S 
                                         1400     1410     1200     1210     1080     1600     1650     1700     1380   
                                           T        V       H0       H01     AOSYM     SMH    MOLCAS    OPER     JKOP   

              2       9        1.69       700     1000      520     2100     1001     2101     1002     2102     2103   
                                         GEOM     BASIS   MCVARS     RHF     BASIS     RHF     BASIS     RHF      RHF  

 PROGRAMS   *        TOTAL    HF-SCF   CCSD(T)    HF-SCF       INT   CCSD(T)    HF-SCF       INT    HF-SCF       INT
 CPU TIMES  *         8.32      0.08      0.97      0.21      0.84      2.91      0.86      1.94      0.02      0.28
 REAL TIME  *        12.98 SEC
 DISK USED  *        85.08 MB (local),        1.01 GB (total)
 SF USED    *        52.34 MB
 GA USED    *         0.00 MB       (max)       0.00 MB       (current)
 **********************************************************************************************************************************


 PROGRAM * CCSD (Closed-shell coupled cluster)     Authors: C. Hampel, H.-J. Werner, 1991, M. Deegan, P.J. Knowles, 1992


 Convergence thresholds:  THRVAR = 1.00D-08  THRDEN = 1.00D-06

 CCSD(T)     terms to be evaluated (factor= 1.000)


 Number of closed-shell orbitals:   5 (   5 )
 Number of external orbitals:      94 (  94 )

 Molecular orbitals read from record     2103.2  Type=RHF/CANONICAL (state 1.1)

 Number of N-1 electron functions:               5
 Number of N-2 electron functions:              15
 Number of singly external CSFs:               470
 Number of doubly external CSFs:            110685
 Total number of CSFs:                      111156

 Length of J-op  integral file:               0.00 MB
 Length of K-op  integral file:               0.67 MB
 Length of 3-ext integral record:             0.00 MB

 Memory could be reduced to 6.66 Mwords without degradation in triples

 Integral transformation finished. Total CPU:   0.20 sec, npass=  1  Memory used:   3.40 MW

 Reference energy:                    -40.21355552

 MP2 singlet pair energy:              -0.18569572
 MP2 triplet pair energy:              -0.06113026
 MP2 correlation energy:               -0.24682599
 MP2 total energy:                    -40.46038151

 SCS-MP2 correlation energy:           -0.26087148   (PS=  1.200000  PT=  0.333333)
 SCS-MP2 total energy:                -40.47442699

 ITER.      SQ.NORM     CORR.ENERGY   TOTAL ENERGY   ENERGY CHANGE        DEN1      VAR(S)    VAR(P)  DIIS     TIME  TIME/IT
   1      1.07262093    -0.26764119   -40.48119671    -0.02081520    -0.01485666  0.60D-03  0.10D-02  1  1     0.31     0.12
   2      1.07777958    -0.26871146   -40.48226698    -0.00107027    -0.00564376  0.12D-04  0.10D-03  2  2     0.39     0.14
   3      1.07941318    -0.26878439   -40.48233991    -0.00007293    -0.00115026  0.24D-05  0.73D-05  3  3     0.48     0.14
   4      1.07988888    -0.26877632   -40.48233184     0.00000807    -0.00028800  0.91D-07  0.42D-06  4  4     0.57     0.15
   5      1.07994798    -0.26877984   -40.48233536    -0.00000352    -0.00001213  0.55D-08  0.17D-07  5  5     0.67     0.15
   6      1.07995211    -0.26877907   -40.48233459     0.00000076    -0.00000174  0.13D-09  0.93D-09  6  6     0.77     0.15
   7      1.07995246    -0.26877894   -40.48233446     0.00000013    -0.00000049  0.12D-10  0.38D-10  6  1     0.87     0.16

 Norm of t1 vector:      0.03185438      S-energy:     0.00000004      T1 diagnostic:  0.00712286
                                                                       D1 diagnostic:  0.01270679
                                                                       D2 diagnostic:  0.13444901 (internal)


 Total CPU time for triples:      0.60 sec


 RESULTS
 =======

  Reference energy                    -40.213555518650

  Correlated core orbitals:             1.1
  Orbital energies:                   -11.2057

  CCSD core-core energy                -0.038740991285
  CCSD core-valence energy             -0.011334926989
  CCSD valence correlation energy      -0.218703025611

  CCSD singlet pair energy             -0.209294628170
  CCSD triplet pair energy             -0.059484351639
  CCSD correlation energy              -0.268778943885

  Triples (T) contribution             -0.006655241384
  Total correlation energy             -0.275434185269

  CCSD total energy                   -40.482334462535
  CCSD[T] energy                      -40.489236594248
  CCSD-T energy                       -40.488903792714
 !CCSD(T) total energy                -40.488989703919

 Timing summary (sec):

 STEP                 CPU(USER)    SYS     CPU(TOT)    WALL
 Transformation          0.21      0.04      0.25      0.36
 CCSD iterations         0.66      0.18      0.84      1.12
 Triples                 0.60      0.06      0.66      0.71

 Program statistics:

 Available memory in ccsd:               999999885
 Min. memory needed in ccsd:                437777
 Max. memory used in ccsd:                  521782
 Max. memory used in cckext:                374393 ( 7 integral passes)



 **********************************************************************************************************************************
 DATASETS  * FILE   NREC   LENGTH (MB)   RECORD NAMES
              1      19       46.82       500      610      700      900      950      970     1002      129      960     1100   
                                          VAR    BASINP    GEOM    SYMINP    ZMAT    AOBASIS   BASIS     P2S    ABASIS      S 
                                         1400     1410     1200     1210     1080     1600     1650     1700     1380   
                                           T        V       H0       H01     AOSYM     SMH    MOLCAS    OPER     JKOP   

              2       9        1.69       700     1000      520     2100     1001     2101     1002     2102     2103   
                                         GEOM     BASIS   MCVARS     RHF     BASIS     RHF     BASIS     RHF      RHF  

 PROGRAMS   *        TOTAL   CCSD(T)    HF-SCF   CCSD(T)    HF-SCF       INT   CCSD(T)    HF-SCF       INT    HF-SCF       INT
 CPU TIMES  *         9.83      1.51      0.08      0.97      0.21      0.84      2.91      0.86      1.94      0.02      0.28
 REAL TIME  *        15.24 SEC
 DISK USED  *        85.08 MB (local),        1.01 GB (total)
 SF USED    *        52.34 MB
 GA USED    *         0.00 MB       (max)       0.00 MB       (current)
 **********************************************************************************************************************************
 SETTING EN_CCSDTCORE_TZ=       -40.48898970  AU                              
 SETTING BASIS          =    AUG-CC-PVTZ


 Recomputing integrals since basis changed


 Using spherical harmonics

 Library entry C      S aug-cc-pVTZ          selected for orbital group  1
 Library entry C      P aug-cc-pVTZ          selected for orbital group  1
 Library entry C      D aug-cc-pVTZ          selected for orbital group  1
 Library entry C      F aug-cc-pVTZ          selected for orbital group  1
 Library entry H      S aug-cc-pVTZ          selected for orbital group  2
 Library entry H      P aug-cc-pVTZ          selected for orbital group  2
 Library entry H      D aug-cc-pVTZ          selected for orbital group  2


 PROGRAM * SEWARD (Integral evaluation for generally contracted gaussian basis sets)     Author: Roland Lindh, 1990

 Geometry written to block  1 of record 700

 Orientation using atomic masses  
 Molecule type: Asymmetric top
 Rotational constants:     158.8984616    158.8885284    158.9039777 GHz  (calculated with average atomic masses)

 Point group  C1  



 ATOMIC COORDINATES

 NR  ATOM    CHARGE       X              Y              Z

   1  C1      6.00    0.000019328   -0.000006817    0.000007099
   2  H2      1.00    1.582016473    0.509973003   -1.209487917
   3  H3      1.00    0.709041508   -0.676199032    1.807138587
   4  H4      1.00   -1.101954925   -1.482490555   -0.901972549
   5  H21     1.00   -1.189333381    1.648797813    0.304237281

 Bond lengths in Bohr (Angstrom)

 1-2  2.055644078  1-3  2.055644078  1-4  2.055644078  1-5  2.055644078
     ( 1.087800000)     ( 1.087800000)     ( 1.087800000)     ( 1.087800000)

 Bond angles

  2-1-3  109.47600000   2-1-4  109.46920000   2-1-5  109.47270000   3-1-4  109.47580150

  3-1-5  109.46898920   4-1-5  109.46463255

 NUCLEAR CHARGE:                   10
 NUMBER OF PRIMITIVE AOS:         175
 NUMBER OF SYMMETRY AOS:          158
 NUMBER OF CONTRACTIONS:          138   (  138A   )
 NUMBER OF INNER CORE ORBITALS:     0   (    0A   )
 NUMBER OF OUTER CORE ORBITALS:     1   (    1A   )
 NUMBER OF VALENCE ORBITALS:        8   (    8A   )


 NUCLEAR REPULSION ENERGY   13.46256140


 Eigenvalues of metric

         1 0.812E-04 0.118E-03 0.118E-03 0.118E-03 0.891E-03 0.891E-03 0.891E-03 0.998E-03


 OPERATOR DM      FOR CENTER  0  COORDINATES:    0.000000    0.000000    0.000000


 **********************************************************************************************************************************
 DATASETS  * FILE   NREC   LENGTH (MB)   RECORD NAMES
              1      18       29.30       500      610      700      900      950      970     1001      129      960     1100   
                                          VAR    BASINP    GEOM    SYMINP    ZMAT    AOBASIS   BASIS     P2S    ABASIS      S 
                                         1400     1410     1200     1210     1080     1600     1650     1700   
                                           T        V       H0       H01     AOSYM     SMH    MOLCAS    OPER   

              2       9        1.69       700     1000      520     2100     1001     2101     1002     2102     2103   
                                         GEOM     BASIS   MCVARS     RHF     BASIS     RHF     BASIS     RHF      RHF  

 PROGRAMS   *        TOTAL       INT   CCSD(T)    HF-SCF   CCSD(T)    HF-SCF       INT   CCSD(T)    HF-SCF       INT    HF-SCF
 CPU TIMES  *        10.18      0.34      1.51      0.08      0.97      0.21      0.84      2.91      0.86      1.94      0.02
 REAL TIME  *        15.72 SEC
 DISK USED  *        85.08 MB (local),        1.01 GB (total)
 SF USED    *        52.34 MB
 GA USED    *         0.00 MB       (max)       0.00 MB       (current)
 **********************************************************************************************************************************


 Program * Restricted Hartree-Fock


 Integral-direct calculation

 Molecular orbitals read from record     2103.2  Type=RHF/CANONICAL (state 1.1)

 Present basis size:      138
 Previous basis size:      99
 Previous occupation:       5
 Previous closed-shells:    5
 Previous core-orbitals:    1
 Present occupation:        5
 Present closed-shells:     5
 Present core-orbitals:     1
 Wavefunction symmetry:    1   Singlet 

 Orbital overlap <old|new>:  < 1.1| 1.1> = 1.000000   < 2.1| 2.1> = 0.999999   < 3.1| 3.1> = 1.000000   < 4.1| 4.1> = 1.000000
                             < 5.1| 5.1> = 1.000000


 Initial occupancy:   5

 NELEC=   10   SYM=1   MS2= 0   THRE=1.0D-08   THRD=3.2D-06   THRG=3.2D-06  HFMA2=F  DIIS_START=2   DIIS_MAX=10   DIIS_INCORE=F

 Level shifts:    0.00 (CLOSED)    0.00 (OPEN)    0.30 (GAP_MIN)

 ITER           ETOT              DE          GRAD        DDIFF     DIIS  NEXP   TIME(IT)  TIME(TOT)  DIAG
   1      -40.21339563     -40.21339563     0.00D+00     0.46D-01     0     0       0.36      0.38    start
   2      -40.21361047      -0.00021484     0.74D-03     0.92D-02     1     0       0.34      0.72    diag
   3      -40.21361534      -0.00000486     0.65D-04     0.13D-02     2     0       0.33      1.05    diag
   4      -40.21361544      -0.00000010     0.84D-05     0.11D-03     3     0       0.33      1.38    diag
   5      -40.21361544      -0.00000000     0.17D-05     0.29D-05     4     0       0.33      1.71    diag
   6      -40.21361544      -0.00000000     0.46D-06     0.14D-05     0     0       0.34      2.05    diag

 Final occupancy:   5

 !RHF STATE 1.1 Energy                -40.213615442418
  RHF One-electron energy             -79.783025575897
  RHF Two-electron energy              26.106848733828
  RHF Kinetic energy                   40.161033829331
  RHF Nuclear energy                   13.462561399651
  RHF Virial quotient                  -1.001309269410

 !RHF STATE 1.1 Dipole moment          -0.00001752     0.00000618    -0.00000643
 Dipole moment /Debye                  -0.00004453     0.00001571    -0.00001635

 Orbital energies:

           1.1          2.1          3.1          4.1          5.1          6.1          7.1
    -11.206220    -0.943267    -0.545082    -0.545071    -0.545051     0.030800     0.050464


 HOMO      5.1    -0.545051 =     -14.8316eV
 LUMO      6.1     0.030800 =       0.8381eV
 LUMO-HOMO         0.575851 =      15.6697eV

 Orbitals saved in record  2104.2


 **********************************************************************************************************************************
 DATASETS  * FILE   NREC   LENGTH (MB)   RECORD NAMES
              1      18       29.30       500      610      700      900      950      970     1001      129      960     1100   
                                          VAR    BASINP    GEOM    SYMINP    ZMAT    AOBASIS   BASIS     P2S    ABASIS      S 
                                         1400     1410     1200     1210     1080     1600     1650     1700   
                                           T        V       H0       H01     AOSYM     SMH    MOLCAS    OPER   

              2      10        2.20       700     1000      520     2100     1001     2101     1002     2102     2103     2104   
                                         GEOM     BASIS   MCVARS     RHF     BASIS     RHF     BASIS     RHF      RHF      RHF  

              4       2        0.15      8000     8001   

 PROGRAMS   *        TOTAL    HF-SCF       INT   CCSD(T)    HF-SCF   CCSD(T)    HF-SCF       INT   CCSD(T)    HF-SCF       INT
 CPU TIMES  *        12.23      2.05      0.34      1.51      0.08      0.97      0.21      0.84      2.91      0.86      1.94
 REAL TIME  *        17.85 SEC
 DISK USED  *        85.08 MB (local),        1.01 GB (total)
 SF USED    *        52.34 MB
 GA USED    *         0.00 MB       (max)       0.00 MB       (current)
 **********************************************************************************************************************************


 PROGRAM * MP2 (Closed-shell)     Authors: C. Hampel, H.-J. Werner, 1991, M. Deegan, P.J. Knowles, 1992


 Basis set AUG-CC-PVTZ/MP2FIT generated. Number of basis functions:   290 

 Convergence thresholds:  THRVAR = 1.00D-08  THRDEN = 1.00D-06

 Number of core orbitals:           1 (   1 )
 Number of closed-shell orbitals:   4 (   4 )
 Number of external orbitals:     133 ( 133 )

 Molecular orbitals read from record     2104.2  Type=RHF/CANONICAL (state 1.1)


 Entering DF-MP2

 Thresholds:    THRAO= 0.100D-09    THRMO= 0.100D-08    THROV= 0.100D-11

 Fitting basis: AUG-CC-PVTZ-MP2FIT
 Number of fitting functions:                 290
 Number of blocks in AO basis:                  1
 Minimum block size:                          138
 Maximum block size:                          138
 Average block size:                          138
 Number of groups in AO basis:                 37
 Number of shells in AO basis:                 66

 Using large memory version DFMP2B. NIBTK= 1  NGPU= 0  IGPU= 0

 para=T  nprocs=  4  mpptyp=0  number of tasks=  10

 Minimum memory with paging:                  1.29 MW
 Minimum memory for incore assembly:          0.82 MW
 Maximum memory for incore algorithm:         1.43 MW
 Memory for 3-index integrals:                0.00 MW

 Disk space for H1-integrals:                 1.29 MB (    40 records)

 CPU time for half transformed integrals      0.02 sec, elapsed time      0.03 sec
 CPU time for assembly                        0.00 sec, elapsed time      0.00 sec (2087.3 MFLOP/sec)
 Total CPU time                               0.04 sec, elapsed time      0.05 sec

 SCS-MP2 correlation energy:           -0.209223261878   (PS=  1.200000  PT=  0.333333)
 SCS-MP2 total energy:                -40.422838704296

 Norm of first-order wave function:     0.049368186716
 Coefficient of reference function:     0.976193818202

  Reference energy                    -40.213615442418
  MP2 singlet pair energy              -0.145858316186
  MP2 triplet pair energy              -0.054953489659
  MP2 correlation energy               -0.200811805845

 !MP2 total energy                    -40.414427248263


 **********************************************************************************************************************************
 DATASETS  * FILE   NREC   LENGTH (MB)   RECORD NAMES
              1      18       29.30       500      610      700      900      950      970     1001      129      960     1100   
                                          VAR    BASINP    GEOM    SYMINP    ZMAT    AOBASIS   BASIS     P2S    ABASIS      S 
                                         1400     1410     1200     1210     1080     1600     1650     1700   
                                           T        V       H0       H01     AOSYM     SMH    MOLCAS    OPER   

              2      10        2.20       700     1000      520     2100     1001     2101     1002     2102     2103     2104   
                                         GEOM     BASIS   MCVARS     RHF     BASIS     RHF     BASIS     RHF      RHF      RHF  

 PROGRAMS   *        TOTAL    DF-MP2    HF-SCF       INT   CCSD(T)    HF-SCF   CCSD(T)    HF-SCF       INT   CCSD(T)    HF-SCF
 CPU TIMES  *        12.33      0.09      2.05      0.34      1.51      0.08      0.97      0.21      0.84      2.91      0.86
 REAL TIME  *        18.01 SEC
 DISK USED  *        85.08 MB (local),        1.01 GB (total)
 SF USED    *        53.11 MB
 GA USED    *         1.53 MB       (max)       0.00 MB       (current)
 **********************************************************************************************************************************
 SETTING EN_MP2_TZ      =       -40.41442725  AU                              
 SETTING BASIS          =    AUG-CC-PVQZ


 Recomputing integrals since basis changed


 Using spherical harmonics

 Library entry C      S aug-cc-pVQZ          selected for orbital group  1
 Library entry C      P aug-cc-pVQZ          selected for orbital group  1
 Library entry C      D aug-cc-pVQZ          selected for orbital group  1
 Library entry C      F aug-cc-pVQZ          selected for orbital group  1
 Library entry C      G aug-cc-pVQZ          selected for orbital group  1
 Library entry H      S aug-cc-pVQZ          selected for orbital group  2
 Library entry H      P aug-cc-pVQZ          selected for orbital group  2
 Library entry H      D aug-cc-pVQZ          selected for orbital group  2
 Library entry H      F aug-cc-pVQZ          selected for orbital group  2


 PROGRAM * SEWARD (Integral evaluation for generally contracted gaussian basis sets)     Author: Roland Lindh, 1990

 Geometry written to block  1 of record 700

 Orientation using atomic masses  
 Molecule type: Asymmetric top
 Rotational constants:     158.8984616    158.8885284    158.9039777 GHz  (calculated with average atomic masses)

 Point group  C1  



 ATOMIC COORDINATES

 NR  ATOM    CHARGE       X              Y              Z

   1  C1      6.00    0.000019328   -0.000006817    0.000007099
   2  H2      1.00    1.582016473    0.509973003   -1.209487917
   3  H3      1.00    0.709041508   -0.676199032    1.807138587
   4  H4      1.00   -1.101954925   -1.482490555   -0.901972549
   5  H21     1.00   -1.189333381    1.648797813    0.304237281

 Bond lengths in Bohr (Angstrom)

 1-2  2.055644078  1-3  2.055644078  1-4  2.055644078  1-5  2.055644078
     ( 1.087800000)     ( 1.087800000)     ( 1.087800000)     ( 1.087800000)

 Bond angles

  2-1-3  109.47600000   2-1-4  109.46920000   2-1-5  109.47270000   3-1-4  109.47580150

  3-1-5  109.46898920   4-1-5  109.46463255

 NUCLEAR CHARGE:                   10
 NUMBER OF PRIMITIVE AOS:         346
 NUMBER OF SYMMETRY AOS:          285
 NUMBER OF CONTRACTIONS:          264   (  264A   )
 NUMBER OF INNER CORE ORBITALS:     0   (    0A   )
 NUMBER OF OUTER CORE ORBITALS:     1   (    1A   )
 NUMBER OF VALENCE ORBITALS:        8   (    8A   )


 NUCLEAR REPULSION ENERGY   13.46256140


 Eigenvalues of metric

         1 0.184E-04 0.441E-04 0.441E-04 0.441E-04 0.110E-03 0.177E-03 0.177E-03 0.177E-03


 OPERATOR DM      FOR CENTER  0  COORDINATES:    0.000000    0.000000    0.000000


 **********************************************************************************************************************************
 DATASETS  * FILE   NREC   LENGTH (MB)   RECORD NAMES
              1      18       31.08       500      610      700      900      950      970     1003      129      960     1100   
                                          VAR    BASINP    GEOM    SYMINP    ZMAT    AOBASIS   BASIS     P2S    ABASIS      S 
                                         1400     1410     1200     1210     1080     1600     1650     1700   
                                           T        V       H0       H01     AOSYM     SMH    MOLCAS    OPER   

              2      11        2.46       700     1000      520     2100     1001     2101     1002     2102     2103     2104   
                                         GEOM     BASIS   MCVARS     RHF     BASIS     RHF     BASIS     RHF      RHF      RHF  
                                         1003   
                                         BASIS   

 PROGRAMS   *        TOTAL       INT    DF-MP2    HF-SCF       INT   CCSD(T)    HF-SCF   CCSD(T)    HF-SCF       INT   CCSD(T)
 CPU TIMES  *        12.65      0.31      0.09      2.05      0.34      1.51      0.08      0.97      0.21      0.84      2.91
 REAL TIME  *        18.47 SEC
 DISK USED  *        85.08 MB (local),        1.01 GB (total)
 SF USED    *        53.11 MB
 GA USED    *         1.53 MB       (max)       0.00 MB       (current)
 **********************************************************************************************************************************


 Program * Restricted Hartree-Fock


 Integral-direct calculation

 Molecular orbitals read from record     2104.2  Type=RHF/CANONICAL (state 1.1)

 Present basis size:      264
 Previous basis size:     138
 Previous occupation:       5
 Previous closed-shells:    5
 Previous core-orbitals:    1
 Present occupation:        5
 Present closed-shells:     5
 Present core-orbitals:     1
 Wavefunction symmetry:    1   Singlet 

 Orbital overlap <old|new>:  < 1.1| 1.1> = 0.999999   < 2.1| 2.1> = 0.999998   < 3.1| 3.1> = 0.999991   < 4.1| 4.1> = 0.999991
                             < 5.1| 5.1> = 0.999991


 Initial occupancy:   5

 NELEC=   10   SYM=1   MS2= 0   THRE=1.0D-08   THRD=3.2D-06   THRG=3.2D-06  HFMA2=F  DIIS_START=2   DIIS_MAX=10   DIIS_INCORE=F

 Level shifts:    0.00 (CLOSED)    0.00 (OPEN)    0.30 (GAP_MIN)

 ITER           ETOT              DE          GRAD        DDIFF     DIIS  NEXP   TIME(IT)  TIME(TOT)  DIAG
   1      -40.21584632     -40.21584632     0.00D+00     0.26D-01     0     0       4.85      4.90    start
   2      -40.21623983      -0.00039351     0.12D-02     0.36D-02     1     0       4.88      9.78    diag
   3      -40.21624152      -0.00000169     0.62D-04     0.30D-03     2     0       4.78     14.56    diag
   4      -40.21624155      -0.00000003     0.48D-05     0.29D-04     3     0       4.82     19.38    diag
   5      -40.21624155      -0.00000000     0.16D-05     0.53D-05     4     0       4.81     24.19    diag
   6      -40.21624155      -0.00000000     0.22D-06     0.92D-06     5     0       4.78     28.97    diag
   7      -40.21624155      -0.00000000     0.30D-07     0.95D-07     0     0       4.59     33.56    diag

 Final occupancy:   5

 !RHF STATE 1.1 Energy                -40.216241551038
  RHF One-electron energy             -79.789161345521
  RHF Two-electron energy              26.110358394831
  RHF Kinetic energy                   40.176405615337
  RHF Nuclear energy                   13.462561399651
  RHF Virial quotient                  -1.000991525625

 !RHF STATE 1.1 Dipole moment          -0.00001748     0.00000617    -0.00000642
 Dipole moment /Debye                  -0.00004443     0.00001567    -0.00001632

 Orbital energies:

           1.1          2.1          3.1          4.1          5.1          6.1          7.1
    -11.205275    -0.943182    -0.545269    -0.545258    -0.545238     0.027431     0.045162


 HOMO      5.1    -0.545238 =     -14.8367eV
 LUMO      6.1     0.027431 =       0.7464eV
 LUMO-HOMO         0.572669 =      15.5831eV

 Orbitals saved in record  2105.2


 **********************************************************************************************************************************
 DATASETS  * FILE   NREC   LENGTH (MB)   RECORD NAMES
              1      18       31.08       500      610      700      900      950      970     1003      129      960     1100   
                                          VAR    BASINP    GEOM    SYMINP    ZMAT    AOBASIS   BASIS     P2S    ABASIS      S 
                                         1400     1410     1200     1210     1080     1600     1650     1700   
                                           T        V       H0       H01     AOSYM     SMH    MOLCAS    OPER   

              2      12        3.63       700     1000      520     2100     1001     2101     1002     2102     2103     2104   
                                         GEOM     BASIS   MCVARS     RHF     BASIS     RHF     BASIS     RHF      RHF      RHF  
                                         1003     2105   
                                         BASIS     RHF  

              4       2        0.53      8000     8001   

 PROGRAMS   *        TOTAL   RHF-SCF       INT    DF-MP2    HF-SCF       INT   CCSD(T)    HF-SCF   CCSD(T)    HF-SCF       INT
 CPU TIMES  *        46.23     33.57      0.31      0.09      2.05      0.34      1.51      0.08      0.97      0.21      0.84
 REAL TIME  *        52.25 SEC
 DISK USED  *        85.08 MB (local),        1.01 GB (total)
 SF USED    *        53.11 MB
 GA USED    *         1.53 MB       (max)       0.00 MB       (current)
 **********************************************************************************************************************************


 PROGRAM * MP2 (Closed-shell)     Authors: C. Hampel, H.-J. Werner, 1991, M. Deegan, P.J. Knowles, 1992


 Basis set AUG-CC-PVQZ/MP2FIT generated. Number of basis functions:   488 

 Convergence thresholds:  THRVAR = 1.00D-08  THRDEN = 1.00D-06

 Number of core orbitals:           1 (   1 )
 Number of closed-shell orbitals:   4 (   4 )
 Number of external orbitals:     259 ( 259 )

 Molecular orbitals read from record     2105.2  Type=RHF/CANONICAL (state 1.1)


 Entering DF-MP2

 Thresholds:    THRAO= 0.100D-09    THRMO= 0.100D-08    THROV= 0.100D-11

 Fitting basis: AUG-CC-PVQZ-MP2FIT
 Number of fitting functions:                 488
 Number of blocks in AO basis:                  1
 Minimum block size:                          264
 Maximum block size:                          264
 Average block size:                          264
 Number of groups in AO basis:                 57
 Number of shells in AO basis:                 93

 Using large memory version DFMP2B. NIBTK= 1  NGPU= 0  IGPU= 0

 para=T  nprocs=  4  mpptyp=0  number of tasks=   8

 Minimum memory with paging:                  5.16 MW
 Minimum memory for incore assembly:          1.15 MW
 Maximum memory for incore algorithm:         5.64 MW
 Memory for 3-index integrals:                0.00 MW

 Disk space for H1-integrals:                 4.14 MB (    32 records)

 CPU time for half transformed integrals      0.09 sec, elapsed time      0.10 sec
 CPU time for assembly                        0.00 sec, elapsed time      0.01 sec (  13.2 GFLOP/sec)
 Total CPU time                               0.12 sec, elapsed time      0.16 sec

 SCS-MP2 correlation energy:           -0.220805734431   (PS=  1.200000  PT=  0.333333)
 SCS-MP2 total energy:                -40.437047285470

 Norm of first-order wave function:     0.050190428347
 Coefficient of reference function:     0.975811590204

  Reference energy                    -40.216241551038
  MP2 singlet pair energy              -0.154800008203
  MP2 triplet pair energy              -0.056323485944
  MP2 correlation energy               -0.211123494147

 !MP2 total energy                    -40.427365045186


 **********************************************************************************************************************************
 DATASETS  * FILE   NREC   LENGTH (MB)   RECORD NAMES
              1      18       31.08       500      610      700      900      950      970     1003      129      960     1100   
                                          VAR    BASINP    GEOM    SYMINP    ZMAT    AOBASIS   BASIS     P2S    ABASIS      S 
                                         1400     1410     1200     1210     1080     1600     1650     1700   
                                           T        V       H0       H01     AOSYM     SMH    MOLCAS    OPER   

              2      12        3.63       700     1000      520     2100     1001     2101     1002     2102     2103     2104   
                                         GEOM     BASIS   MCVARS     RHF     BASIS     RHF     BASIS     RHF      RHF      RHF  
                                         1003     2105   
                                         BASIS     RHF  

 PROGRAMS   *        TOTAL    DF-MP2   RHF-SCF       INT    DF-MP2    HF-SCF       INT   CCSD(T)    HF-SCF   CCSD(T)    HF-SCF
 CPU TIMES  *        46.41      0.18     33.57      0.31      0.09      2.05      0.34      1.51      0.08      0.97      0.21
 REAL TIME  *        52.52 SEC
 DISK USED  *        85.08 MB (local),        1.01 GB (total)
 SF USED    *        53.11 MB
 GA USED    *         1.53 MB       (max)       0.00 MB       (current)
 **********************************************************************************************************************************
 SETTING EN_MP2_QZ      =       -40.42736505  AU                              
 SETTING EN_MP2_CBS     =       -40.43483274  AU                              
 SETTING CBSEN          =       -40.51119857  AU                              

 Dump information in style MOLDEN to molpro.molden                                                                   

 Molecular orbitals read from record     2105.2  Type=RHF/CANONICAL (state 1.1)
 Occupation numbers read from record     2105.2  Type=RHF/RHF (state 1.1)
 Orbital energies read from record       2105.2  Type=RHF/CANONICAL (state 1.1)
 Redundancy group numbers read from rec  2105.2  Type=RHF/RHF (state 1.1)

 DUMP ORBITAL  1.1 AS ORBITAL    1  occ=    2.0000  eig=  -11.2053  GROUP=   2
 DUMP ORBITAL  2.1 AS ORBITAL    2  occ=    2.0000  eig=   -0.9432  GROUP=   2
 DUMP ORBITAL  3.1 AS ORBITAL    3  occ=    2.0000  eig=   -0.5453  GROUP=   2
 DUMP ORBITAL  4.1 AS ORBITAL    4  occ=    2.0000  eig=   -0.5453  GROUP=   2
 DUMP ORBITAL  5.1 AS ORBITAL    5  occ=    2.0000  eig=   -0.5452  GROUP=   2

 Total charge:      10.000000

 **********************************************************************************************************************************

 DF-MP2/aug-cc-pVQZ energy=    -40.427365045186

          DF-MP2         RHF-SCF          DF-MP2          HF-SCF         CCSD(T)          HF-SCF         CCSD(T)          HF-SCF
    -40.42736505    -40.21624155    -40.41442725    -40.21361544    -40.48898970    -40.21355552    -40.43911576    -40.21355552
 **********************************************************************************************************************************
 Molpro calculation terminated
