[Molden Format]
[Molpro variables]
_NUMVAR=  1044.000000000000    
_AVOGAD= 0.6022140760000000E+24
_BOLTZ= 0.1380649000000000E-22
_CLIGHTSI=  299792458.0000000    
_JOULE= 0.4359744722207100E-17
_JPCAL=  4.184000000000000    
_PLANCK= 0.6626070150000000E-33
_BOHR= 0.5291772109030000E-10
_ECHARG= 0.1602176634000000E-18
_ENULL= 0.8854187812800001E-11
_MU= 0.1660539066600000E-26
_EMASS= 0.9109383701500001E-30
_AMU2AU=  1822.888486217313    
_CLIGHT=  29979245800.00000    
_EV= 0.3674932217565494E-01
_KJOULE= 0.3808798847133432E-03
_KJOULE/MOL= 0.3808798847133432E-03
_CM= 0.4556335252912009E-05
_CM-1= 0.4556335252912009E-05
_DEB2SI= 0.3335640951981520E-29
_KCAL= 0.1593601437640628E-02
_KCAL/MOL= 0.1593601437640628E-02
_KELVIN= 0.3166811563455608E-05
_HERTZ= 0.1519829846057038E-15
_HZ= 0.1519829846057038E-15
_TOA= 0.5291772109030000    
_TOANG= 0.5291772109030000    
_TORAD= 0.1745329251994330E-01
_TOCM=  219474.6313631965    
_TODEBYE=  2.541746473194078    
_TOE= 0.4803204712570263E-09
_TOEV=  27.21138624598803    
_TOHERTZ=  6579683920501656.    
_TOHZ=  6579683920501656.    
_TOK=  315775.0248040668    
_TOKCAL=  627.5094740630558    
_TOKELVIN=  315775.0248040668    
_TOKJ=  2625.499639479825    
_TOKJOULE=  2625.499639479825    
_TOKG= 0.1660539066600000E-26
_ANG=  1.889726124625770    
_ANGSTROM=  1.889726124625770    
_RPAREF=  0.000000000000000    
_RPADISS=  0.000000000000000    
_IGNORE_UNDEF=  2.000000000000000    
_STRICTCHECK=  0.000000000000000    
!SEWARD=  0.000000000000000    
!MULTI=  0.000000000000000    
!DFMULTI=  0.000000000000000    
_SEW_ONEEL=  0.000000000000000    
_CPPDONE=FALSE
_DKROLL_DONE=  0.000000000000000    
_FNUC_DONE=  0.000000000000000    
_FOCKDONE=TRUE
_GRADONE=FALSE
_HESSDONE=FALSE
_INTDONE=TRUE
_SCFDONE=TRUE
_MODUL_BLOCK=FALSE
_MODUL_CUDA=FALSE
_MODUL_SLATER=FALSE
_MODUL_MRCC=TRUE
_MODUL_NBO6=FALSE
_MODUL_NECI=FALSE
_MODUL_AIMS=TRUE
_MODUL_GECCO=FALSE
_ISWINDOWS=FALSE
_MRCC_EXEC=/software/cinetica/mrcc/bin/dmrcc
_FITC_AO_SAVED=FALSE
_FITC_MO_SAVED=FALSE
_SHARED_FS=TRUE
_LSTYP=SEWARD
_INTYP=INTS
_GEOMTYP=ZMAT
_GRADTYP=ALASKA
_DIRECT=TRUE
_DKHO= -1.000000000000000    
_FNUC=  0.000000000000000    
_SYNCM=  0.000000000000000    
_BASIS=AUG-CC-PVQZ
_ZORIENT=  1.000000000000000    
!ZORIENT=  0.000000000000000    
_NELEC=  10.00000000000000    
!SPIN=  0.000000000000000    
_QSDSTEP=  0.000000000000000    
_QSDIRC=  0.000000000000000    
_PROGRAM=DF-MP2
_CPUSTEP= 0.1799999999999997    
_SYSSTEP= 0.1000000000000023E-01
_WALLSTEP= 0.2700000000000000    
!DFMP2=  1.000000000000000    
!DFSCF=  0.000000000000000    
!SCSGRD=  0.000000000000000    
_CPU2IDX_CFIT= 0.9999999999998010E-02
_CPU3IDX_CFIT= 0.7000000000000028E-01
_CPUASMBL_CFIT=  0.000000000000000    
_CPUTOT=  46.41000000000000    
_CPUTR1_CFIT= 0.2000000000000313E-01
_CPUTR2_CFIT=  0.000000000000000    
_CPUINV_CFIT=  0.000000000000000    
_CPUTRANS_CFIT= 0.1199999999999974    
_CPUCCSD= 0.1400000000000006    
_SYSCCSD= 0.1000000000000023E-01
_WALLCCSD= 0.2099999990314245    
_CPUF12=  0.000000000000000    
_SYSF12=  0.000000000000000    
_WALLF12=  0.000000000000000    
_CPUF12B=  0.000000000000000    
_SYSF12B=  0.000000000000000    
_WALLF12B=  0.000000000000000    
_CPUTRANS=  0.000000000000000    
_SYSTRANS=  0.000000000000000    
_WALLTRANS=  0.000000000000000    
_DFTEXFAC=  1.000000000000000    
_DMX=  0.000000000000000    
_DMY=  0.000000000000000    
_DMZ=  0.000000000000000    
_DMX_SCF=-0.1748161424888739E-04
_DMY_SCF= 0.6165428216874929E-05
_DMZ_SCF=-0.6420064486357927E-05
_HOMO=  5.100000000000000    
_EHOMO=-0.5452383350615985    
_LUMO=  6.100000000000000    
_ELUMO= 0.2743073663292497E-01
_EMP2= -40.42736504518572    
_EMP2_SING=-0.1548000082030196    
_EMP2_TRIP=-0.5632348594425460E-01
_EMP2_SCS= -40.43704728546961    
_ENERGC= -40.42736504518572    
_ENERGR= -40.21624155103845    
_ENERGY= -40.42736504518572    
_ENERGY_METHOD=DF-MP2
_ENERGY_BASIS=aug-cc-pVQZ
_GEOMETRY_METHOD=
_GEOMETRY_BASIS=
_ENUC=  13.46256139965131    
_GRADEXFAC=  9999.000000000000    
_GRADMETHOD=  8.000000000000000    
_NMRMETHOD=  0.000000000000000    
_NMRMAGNET=  0.000000000000000    
!GRID_FREEZE= -1.000000000000000    
!NEESE_INDEX=  0.000000000000000    
_ITERATIONS=  0.000000000000000    
_LASTNELEC=  10.00000000000000    
_LASTSPIN=  0.000000000000000    
_LASTSYM=  1.000000000000000    
_MPP_PROG=  1.000000000000000    
_MSNSTATES=  0.000000000000000    
_RS2PHASE=  0.000000000000000    
_IPROC_MPP=  0.000000000000000    
_IPROC_MPPX=  0.000000000000000    
_NPROC_MPP=  4.000000000000000    
_NPROC_MPPX=  4.000000000000000    
_NPROC_SMP=  1.000000000000000    
_NUMSTEP=  0.000000000000000    
_ORBITAL=  2105.200000000000    
_PAOINT_CFIT=  100.0000000000000    
_PH1INT_CFIT=  25.40983606557377    
_PH2INT_CFIT=  25.00000000000000    
_PI=  3.141592653589793    
_SEIG_MIN= 0.1839639143095172E-04
_SEWPROP=TRUE
_STATUS= -1.000000000000000    
_SYSTOT=  2.500000000000000    
_T1DIAG= 0.7122856569347085E-02
_D1DIAG= 0.1270679123980430E-01
_D2DIAG= 0.1344490053629777    
_VERSION=  2022002.000000000    
_WALLTOT=  52.52000000000000    
!DFBASIS_MP2=AUG-CC-PVQZ-MP2FIT
_DATE=02-Jun-23
_LASTORB=0
_METHODC=MP2
_OUTPUT=/home/chimica2/cavallotti/qm/barrierless/vrc_autom/folders/ch3+h/ref/molpro.out
_PGROUP=C1
_TIME=18:08:48
_LIBMOL=/software/cinetica/molpro_2022.2/lib/
_VIGRDC=  0.000000000000000    
!VIBCNT=  0.000000000000000    
!RGHFCNT=  0.000000000000000    
!SURFREC=  0.000000000000000    
!XSURFREC=  0.000000000000000    
!XPOLYREC=  0.000000000000000    
!ROTREC=  0.000000000000000    
!POLYREC=  0.000000000000000    
!DIPREC=  0.000000000000000    
!DIP4DREC=  0.000000000000000    
!DIPROT=  0.000000000000000    
!DIP4DROT=  0.000000000000000    
!PTREC=  0.000000000000000    
!PT4DREC=  0.000000000000000    
!VSCFREC=  0.000000000000000    
!VCIREC=  0.000000000000000    
!PVCIREC=  0.000000000000000    
!VMP2REC=  0.000000000000000    
!VMCSCFREC=  0.000000000000000    
!VMRCIREC=  0.000000000000000    
!VIBSTATEREC=  0.000000000000000    
!VIBSTATECNT=  0.000000000000000    
!VIBINFO=  0.000000000000000    
!GAREC=  0.000000000000000    
!SCFORB=  21052.00000000000    
!DEFCORE=  1.000000000000000    
!SCORE=  0.000000000000000    
!NEWMOL=  0.000000000000000    
!NEWSYM=  0.000000000000000    
_SLFILES=slscratch
_NGSSTO=  9.000000000000000    
_SIN=SIN
_COS=COS
_TAN=TAN
_ACOS=ACOS
_ASIN=ASIN
_ATAN=ATAN
_COSH=COSH
_SINH=SINH
_TANH=TANH
_ABS=ABS
_MOD=MOD
_ERF=ERF
_REFC=REFC
_ERFC=ERFC
_HYPOT=HYPOT
_J0=J0
_J1=J1
_JN=JN
_GAMMA=GAMMA
_LGAMMA=LGAMMA
_Y0=Y0
_Y1=Y1
_YN=YN
_EXP=EXP
_LOG=LOG
_LOG10=LOG10
_SQRT=SQRT
_INT=INT
_NINT=NINT
_MAX=MAX
_MIN=MIN
_COSMO=  0.000000000000000    
_COSMOIT=  0.000000000000000    
_COSMOES=  0.000000000000000    
_COSMOEDS=  0.000000000000000    
_COSMOEC=  0.000000000000000    
_COSMOEDCORR=  0.000000000000000    
_FEPSI=  1.000000000000000    
_SL_IsMM=  0.000000000000000    
_SL_NSYM=  1.000000000000000    
_SL_System_BitSw=  0.000000000000000    
_SL_Unique_atoms=  0.000000000000000    
_SL_GRAD=  0.000000000000000    
_SL_MAXUPD_Hess=  5.000000000000000    
_SL_N_PRINT_COD=  5.000000000000000    
_SL_PRINT_CODES=  0.000000000000000    
_SL_BasType=  0.000000000000000    
_SL_Energy_Pred=  0.000000000000000    
_SL_New_Coords=  0.000000000000000    
_SL_Total_Nuclea=  0.000000000000000    
_SL_Highest_Mltp=  0.000000000000000    
_SL_Ref_Geom=  0.000000000000000    
_SL_Symmetry_ope=  1.000000000000000    
_SL_agrad=  0.000000000000000    
_SL_GrdMax=  0.000000000000000    
_SL_GrdNorm=  0.000000000000000    
_SL_GrdRMS=  0.000000000000000    
_SL_Hss_Q=  0.000000000000000    
_SL_Hss_X=  0.000000000000000    
_SL_BMxOld=  0.000000000000000    
_SL_KtB=  0.000000000000000    
_SL_TROld=  0.000000000000000    
_SL_No_of_Intern=  0.000000000000000    
_SL_Hess=  0.000000000000000    
_SL_K=  0.000000000000000    
!LATTICE= -1.000000000000000    
!NEWLATTICE=  0.000000000000000    
!LATGRAD_VAR=FALSE
!SEW_LATTICE=  1.000000000000000    
!AIC_ONEEL=  0.000000000000000    
!LOCAL=  0.000000000000000    
!SAVEDOM= -1.000000000000000    
!RESTDOM= -1.000000000000000    
!SAVEDOM_HF= -1.000000000000000    
!RESTDOM_HF= -1.000000000000000    
!HESSREC=  0.000000000000000    
!FREQREC=  0.000000000000000    
!NMODREC=  0.000000000000000    
!GTASKS=  0.000000000000000    
!HTASKS=  0.000000000000000    
!SAVEDOM_EOM= -1.000000000000000    
!RESTDOM_EOM= -1.000000000000000    
!GRADSTATE= -1.000000000000000    
!THRCHG= 0.1000000000000000    
!DEBUG= -1.000000000000000    
!CFIT_CPHF=  0.000000000000000    
!RDOMAUX_CPHF=  3.000000000000000    
!THRAO_CPHF= 0.1000000000000000E-09
!THRMO_CPHF= 0.1000000000000000E-08
!THROV_CPHF= 0.1000000000000000E-11
!THRSW_CPHF= 0.1000000000000000E-09
!THRPROD_CPHF= 0.1000000000000000E-08
!THRAOPR_CPHF= 0.1000000000000000E-11
!CFIT_SCFGRD=  0.000000000000000    
!RDOMAUX_SCFGRD=  7.000000000000000    
!THRAO_SCFGRD= 0.1000000000000000E-09
!THRMO_SCFGRD= 0.1000000000000000E-08
!THROV_SCFGRD= 0.1000000000000000E-11
!THRSW_SCFGRD= 0.1000000000000000E-09
!THRPROD_SCFGRD= 0.1000000000000000E-08
!THRAOPR_SCFGRD= 0.1000000000000000E-11
!LOCFIT_SCF=  0.000000000000000    
!LOCFIT_MP2=  0.000000000000000    
_RIDOM=  0.000000000000000    
!CC2_METHOD=  0.000000000000000    
_BASIS2006=FALSE
_SVDDEL= -1.000000000000000    
_SVDDELA= -1.000000000000000    
_SVDDELP= -1.000000000000000    
_SVDDELF= -1.000000000000000    
_SVDDELS= -1.000000000000000    
_SVDDEL_ABS= -1.000000000000000    
_SVDDELA_ABS= -1.000000000000000    
_SVDDELP_ABS= -1.000000000000000    
_SVDDELF_ABS= -1.000000000000000    
_SVDDELS_ABS= -1.000000000000000    
_MAXBASIS=  0.000000000000000    
!OPT_CONICAL=  0.000000000000000    
!CLEARSP_JGRID=  0.000000000000000    
_GRDHYBR=  0.000000000000000    
_STATEGRAD=  1.000000000000000    
_4EXT_NDISKS=  1.000000000000000    
!EMBEDFLAG=  1.000000000000000    
!EMBED=FALSE
!EMBED_F12=FALSE
!EMBEDNUC=  0.000000000000000    
_EMBEDENERGY=  0.000000000000000    
!EMBED_DFC=FALSE
!NUM_VOIDS=  0.000000000000000    
_IBODY=  0.000000000000000    
_EMBE_CORR=  0.000000000000000    
!EMBED_PROJ=FALSE
!EMB_PROJ_ZMU=  1000000.000000000    
!CORRECTION_HF=  0.000000000000000    
!EMBED_AORB=  0.000000000000000    
!EMBED_NACORR=  0.000000000000000    
!EMBED_MP2=FALSE
!EMBED_TRUNC_PERTURBATION=FALSE
!EMBED_FROZEN=  0.000000000000000    
!EMBED_ACTIVE=  0.000000000000000    
_CHANGE_BASIS=FALSE
_RESTORE_BASIS=FALSE
_FIX_EMBED_GUESS=FALSE
_EMBED_SCF=FALSE
_HUZINAGA_T=FALSE
_HUZINAGA_F=FALSE
_HUZINAGA=FALSE
_HUZINAGA_CORRECT=FALSE
!FASTLATGRAD=  1.000000000000000    
!FASTVLAMBDA= -1.000000000000000    
!IFORCE= -1.000000000000000    
!USESYM= -1.000000000000000    
_SINDEX=  0.000000000000000    
_AVDOM_OSV=  0.000000000000000    
_AVDOM_PNO=  0.000000000000000    
_AVDOM_PAO=  0.000000000000000    
_AVDOM_LMO=  0.000000000000000    
_CC2OSV_FLAG=  0.000000000000000    
_EOMCCSD_CONV=FALSE
_TMADC2_FLAG=FALSE
_PROPADC2_FLAG=FALSE
_LEN_VirQ=  0.000000000000000    
_GRDCC2LR_FLAG=FALSE
_GRDADC2_FLAG=FALSE
_RO_VGLOBAL=  0.000000000000000    
_OPT=FALSE
_FREQ=FALSE
_HESS=FALSE
_CMRCC_callName=EMPTY
_CMRCC_callCount=  0.000000000000000    
_GECCO_CIROOT=  1.000000000000000    
_SYM_CATION=  1.000000000000000    
_MON_A=FALSE
_MON_B=FALSE
R1=  1.087800000000000    
R2=  1.087800000000000    
R3=  1.087800000000000    
A2=  109.4760000000000    
A3=  109.4692000000000    
D3=  239.9927000000000    
BB=  1.087800000000000    
ANG1=  109.4727000000000    
DH1=  120.0011000000000    
GX1= 0.1932841029003440E-04
GY1=-0.6816553277163727E-05
GZ1= 0.7099319650069115E-05
GX2=  1.582016472748284    
GY2= 0.5099730033158014    
GZ2= -1.209487917438088    
GX3= 0.7090415083919548    
GY3=-0.6761990319636435    
GZ3=  1.807138586799611    
GX4= -1.101954924837873    
GY4= -1.482490555466106    
GZ4=-0.9019725489908091    
GX5= -1.189333381059784    
GY5=  1.648797812779753    
GZ5= 0.3042372814108240    
EN_CC= -40.44091912806854    
EN_CCSDT_TZ= -40.43911575635941    
EN_CCSDTCORE_TZ= -40.48898970391934    
EN_MP2_TZ= -40.41442724826307    
EN_MP2_QZ= -40.42736504518572    
EN_MP2_CBS= -40.43483274156948    
CBSEN= -40.51119856893489    
[Atoms] Angs
C     1    6         0.0000102282       -0.0000036072        0.0000037568
H     2    1         0.8371670647        0.2698660915       -0.6400334428
H     3    1         0.3752086078       -0.3578291177        0.9562965571
H     4    1        -0.5831294337       -0.7845002173       -0.4773033178
H     5    1        -0.6293681214        0.8725062279        0.1609954360
[GTO]
   1 0
 s   12  1.00
  0.3398000000D+05  0.9100003183D-04
  0.5089000000D+04  0.7040002463D-03
  0.1157000000D+04  0.3693001292D-02
  0.3266000000D+03  0.1536000537D-01
  0.1061000000D+03  0.5292901851D-01
  0.3811000000D+02  0.1470430514D+00
  0.1475000000D+02  0.3056311069D+00
  0.6035000000D+01  0.3993451397D+00
  0.2530000000D+01  0.2170510759D+00
  0.7355000000D+00  0.1589400556D-01
  0.2905000000D+00 -0.3084001079D-02
  0.1111000000D+00  0.9780003421D-03
 s   12  1.00
  0.3398000000D+05 -0.1899998737D-04
  0.5089000000D+04 -0.1509998996D-03
  0.1157000000D+04 -0.7849994782D-03
  0.3266000000D+03 -0.3323997790D-02
  0.1061000000D+03 -0.1151199235D-01
  0.3811000000D+02 -0.3415997729D-01
  0.1475000000D+02 -0.7717294870D-01
  0.6035000000D+01 -0.1414929059D+00
  0.2530000000D+01 -0.1180189215D+00
  0.7355000000D+00  0.2738058180D+00
  0.2905000000D+00  0.5865096101D+00
  0.1111000000D+00  0.2854298103D+00
 s   12  1.00
  0.3398000000D+05  0.0000000000D+00
  0.5089000000D+04  0.0000000000D+00
  0.1157000000D+04  0.0000000000D+00
  0.3266000000D+03  0.0000000000D+00
  0.1061000000D+03  0.0000000000D+00
  0.3811000000D+02  0.0000000000D+00
  0.1475000000D+02  0.0000000000D+00
  0.6035000000D+01  0.0000000000D+00
  0.2530000000D+01  0.0000000000D+00
  0.7355000000D+00  0.1000000000D+01
  0.2905000000D+00  0.0000000000D+00
  0.1111000000D+00  0.0000000000D+00
 s   12  1.00
  0.3398000000D+05  0.0000000000D+00
  0.5089000000D+04  0.0000000000D+00
  0.1157000000D+04  0.0000000000D+00
  0.3266000000D+03  0.0000000000D+00
  0.1061000000D+03  0.0000000000D+00
  0.3811000000D+02  0.0000000000D+00
  0.1475000000D+02  0.0000000000D+00
  0.6035000000D+01  0.0000000000D+00
  0.2530000000D+01  0.0000000000D+00
  0.7355000000D+00  0.0000000000D+00
  0.2905000000D+00  0.1000000000D+01
  0.1111000000D+00  0.0000000000D+00
 s   12  1.00
  0.3398000000D+05  0.0000000000D+00
  0.5089000000D+04  0.0000000000D+00
  0.1157000000D+04  0.0000000000D+00
  0.3266000000D+03  0.0000000000D+00
  0.1061000000D+03  0.0000000000D+00
  0.3811000000D+02  0.0000000000D+00
  0.1475000000D+02  0.0000000000D+00
  0.6035000000D+01  0.0000000000D+00
  0.2530000000D+01  0.0000000000D+00
  0.7355000000D+00  0.0000000000D+00
  0.2905000000D+00  0.0000000000D+00
  0.1111000000D+00  0.1000000000D+01
 s    1  1.00
  0.4145000000D-01  0.1000000000D+01
 p    6  1.00
  0.3451000000D+02  0.5377997334D-02
  0.7915000000D+01  0.3613198209D-01
  0.2368000000D+01  0.1424929294D+00
  0.8132000000D+00  0.3421498304D+00
  0.2890000000D+00  0.4638637700D+00
  0.1007000000D+00  0.2500278760D+00
 p    6  1.00
  0.3451000000D+02  0.0000000000D+00
  0.7915000000D+01  0.0000000000D+00
  0.2368000000D+01  0.0000000000D+00
  0.8132000000D+00  0.1000000000D+01
  0.2890000000D+00  0.0000000000D+00
  0.1007000000D+00  0.0000000000D+00
 p    6  1.00
  0.3451000000D+02  0.0000000000D+00
  0.7915000000D+01  0.0000000000D+00
  0.2368000000D+01  0.0000000000D+00
  0.8132000000D+00  0.0000000000D+00
  0.2890000000D+00  0.1000000000D+01
  0.1007000000D+00  0.0000000000D+00
 p    6  1.00
  0.3451000000D+02  0.0000000000D+00
  0.7915000000D+01  0.0000000000D+00
  0.2368000000D+01  0.0000000000D+00
  0.8132000000D+00  0.0000000000D+00
  0.2890000000D+00  0.0000000000D+00
  0.1007000000D+00  0.1000000000D+01
 p    1  1.00
  0.3218000000D-01  0.1000000000D+01
 d    1  1.00
  0.1848000000D+01  0.1000000000D+01
 d    1  1.00
  0.6490000000D+00  0.1000000000D+01
 d    1  1.00
  0.2280000000D+00  0.1000000000D+01
 d    1  1.00
  0.7660000000D-01  0.1000000000D+01
 f    1  1.00
  0.1419000000D+01  0.1000000000D+01
 f    1  1.00
  0.4850000000D+00  0.1000000000D+01
 f    1  1.00
  0.1870000000D+00  0.1000000000D+01
 g    1  1.00
  0.1011000000D+01  0.1000000000D+01
 g    1  1.00
  0.4240000000D+00  0.1000000000D+01
  
   2 0
 s    6  1.00
  0.8264000000D+02  0.2006000801D-02
  0.1241000000D+02  0.1534300612D-01
  0.2824000000D+01  0.7557903017D-01
  0.7977000000D+00  0.2568751025D+00
  0.2581000000D+00  0.4973681985D+00
  0.8989000000D-01  0.2961331182D+00
 s    6  1.00
  0.8264000000D+02  0.0000000000D+00
  0.1241000000D+02  0.0000000000D+00
  0.2824000000D+01  0.0000000000D+00
  0.7977000000D+00  0.1000000000D+01
  0.2581000000D+00  0.0000000000D+00
  0.8989000000D-01  0.0000000000D+00
 s    6  1.00
  0.8264000000D+02  0.0000000000D+00
  0.1241000000D+02  0.0000000000D+00
  0.2824000000D+01  0.0000000000D+00
  0.7977000000D+00  0.0000000000D+00
  0.2581000000D+00  0.1000000000D+01
  0.8989000000D-01  0.0000000000D+00
 s    6  1.00
  0.8264000000D+02  0.0000000000D+00
  0.1241000000D+02  0.0000000000D+00
  0.2824000000D+01  0.0000000000D+00
  0.7977000000D+00  0.0000000000D+00
  0.2581000000D+00  0.0000000000D+00
  0.8989000000D-01  0.1000000000D+01
 s    1  1.00
  0.2363000000D-01  0.1000000000D+01
 p    1  1.00
  0.2292000000D+01  0.1000000000D+01
 p    1  1.00
  0.8380000000D+00  0.1000000000D+01
 p    1  1.00
  0.2920000000D+00  0.1000000000D+01
 p    1  1.00
  0.8480000000D-01  0.1000000000D+01
 d    1  1.00
  0.2062000000D+01  0.1000000000D+01
 d    1  1.00
  0.6620000000D+00  0.1000000000D+01
 d    1  1.00
  0.1900000000D+00  0.1000000000D+01
 f    1  1.00
  0.1397000000D+01  0.1000000000D+01
 f    1  1.00
  0.3600000000D+00  0.1000000000D+01
  
   3 0
 s    6  1.00
  0.8264000000D+02  0.2006000801D-02
  0.1241000000D+02  0.1534300612D-01
  0.2824000000D+01  0.7557903017D-01
  0.7977000000D+00  0.2568751025D+00
  0.2581000000D+00  0.4973681985D+00
  0.8989000000D-01  0.2961331182D+00
 s    6  1.00
  0.8264000000D+02  0.0000000000D+00
  0.1241000000D+02  0.0000000000D+00
  0.2824000000D+01  0.0000000000D+00
  0.7977000000D+00  0.1000000000D+01
  0.2581000000D+00  0.0000000000D+00
  0.8989000000D-01  0.0000000000D+00
 s    6  1.00
  0.8264000000D+02  0.0000000000D+00
  0.1241000000D+02  0.0000000000D+00
  0.2824000000D+01  0.0000000000D+00
  0.7977000000D+00  0.0000000000D+00
  0.2581000000D+00  0.1000000000D+01
  0.8989000000D-01  0.0000000000D+00
 s    6  1.00
  0.8264000000D+02  0.0000000000D+00
  0.1241000000D+02  0.0000000000D+00
  0.2824000000D+01  0.0000000000D+00
  0.7977000000D+00  0.0000000000D+00
  0.2581000000D+00  0.0000000000D+00
  0.8989000000D-01  0.1000000000D+01
 s    1  1.00
  0.2363000000D-01  0.1000000000D+01
 p    1  1.00
  0.2292000000D+01  0.1000000000D+01
 p    1  1.00
  0.8380000000D+00  0.1000000000D+01
 p    1  1.00
  0.2920000000D+00  0.1000000000D+01
 p    1  1.00
  0.8480000000D-01  0.1000000000D+01
 d    1  1.00
  0.2062000000D+01  0.1000000000D+01
 d    1  1.00
  0.6620000000D+00  0.1000000000D+01
 d    1  1.00
  0.1900000000D+00  0.1000000000D+01
 f    1  1.00
  0.1397000000D+01  0.1000000000D+01
 f    1  1.00
  0.3600000000D+00  0.1000000000D+01
  
   4 0
 s    6  1.00
  0.8264000000D+02  0.2006000801D-02
  0.1241000000D+02  0.1534300612D-01
  0.2824000000D+01  0.7557903017D-01
  0.7977000000D+00  0.2568751025D+00
  0.2581000000D+00  0.4973681985D+00
  0.8989000000D-01  0.2961331182D+00
 s    6  1.00
  0.8264000000D+02  0.0000000000D+00
  0.1241000000D+02  0.0000000000D+00
  0.2824000000D+01  0.0000000000D+00
  0.7977000000D+00  0.1000000000D+01
  0.2581000000D+00  0.0000000000D+00
  0.8989000000D-01  0.0000000000D+00
 s    6  1.00
  0.8264000000D+02  0.0000000000D+00
  0.1241000000D+02  0.0000000000D+00
  0.2824000000D+01  0.0000000000D+00
  0.7977000000D+00  0.0000000000D+00
  0.2581000000D+00  0.1000000000D+01
  0.8989000000D-01  0.0000000000D+00
 s    6  1.00
  0.8264000000D+02  0.0000000000D+00
  0.1241000000D+02  0.0000000000D+00
  0.2824000000D+01  0.0000000000D+00
  0.7977000000D+00  0.0000000000D+00
  0.2581000000D+00  0.0000000000D+00
  0.8989000000D-01  0.1000000000D+01
 s    1  1.00
  0.2363000000D-01  0.1000000000D+01
 p    1  1.00
  0.2292000000D+01  0.1000000000D+01
 p    1  1.00
  0.8380000000D+00  0.1000000000D+01
 p    1  1.00
  0.2920000000D+00  0.1000000000D+01
 p    1  1.00
  0.8480000000D-01  0.1000000000D+01
 d    1  1.00
  0.2062000000D+01  0.1000000000D+01
 d    1  1.00
  0.6620000000D+00  0.1000000000D+01
 d    1  1.00
  0.1900000000D+00  0.1000000000D+01
 f    1  1.00
  0.1397000000D+01  0.1000000000D+01
 f    1  1.00
  0.3600000000D+00  0.1000000000D+01
  
   5 0
 s    6  1.00
  0.8264000000D+02  0.2006000801D-02
  0.1241000000D+02  0.1534300612D-01
  0.2824000000D+01  0.7557903017D-01
  0.7977000000D+00  0.2568751025D+00
  0.2581000000D+00  0.4973681985D+00
  0.8989000000D-01  0.2961331182D+00
 s    6  1.00
  0.8264000000D+02  0.0000000000D+00
  0.1241000000D+02  0.0000000000D+00
  0.2824000000D+01  0.0000000000D+00
  0.7977000000D+00  0.1000000000D+01
  0.2581000000D+00  0.0000000000D+00
  0.8989000000D-01  0.0000000000D+00
 s    6  1.00
  0.8264000000D+02  0.0000000000D+00
  0.1241000000D+02  0.0000000000D+00
  0.2824000000D+01  0.0000000000D+00
  0.7977000000D+00  0.0000000000D+00
  0.2581000000D+00  0.1000000000D+01
  0.8989000000D-01  0.0000000000D+00
 s    6  1.00
  0.8264000000D+02  0.0000000000D+00
  0.1241000000D+02  0.0000000000D+00
  0.2824000000D+01  0.0000000000D+00
  0.7977000000D+00  0.0000000000D+00
  0.2581000000D+00  0.0000000000D+00
  0.8989000000D-01  0.1000000000D+01
 s    1  1.00
  0.2363000000D-01  0.1000000000D+01
 p    1  1.00
  0.2292000000D+01  0.1000000000D+01
 p    1  1.00
  0.8380000000D+00  0.1000000000D+01
 p    1  1.00
  0.2920000000D+00  0.1000000000D+01
 p    1  1.00
  0.8480000000D-01  0.1000000000D+01
 d    1  1.00
  0.2062000000D+01  0.1000000000D+01
 d    1  1.00
  0.6620000000D+00  0.1000000000D+01
 d    1  1.00
  0.1900000000D+00  0.1000000000D+01
 f    1  1.00
  0.1397000000D+01  0.1000000000D+01
 f    1  1.00
  0.3600000000D+00  0.1000000000D+01


[MO]
 Sym=      1.1
 Ene=     -11.2053
 Spin= Alpha
 Occup=    2.000000
1 1.00073274486123
2 0.006816511257046
3 0.004347115706090
4 -0.014950040894441
5 -0.011822531589992
6 -0.000881742576996
7 0.000000053408984
8 -0.000000018876075
9 0.000000019558400
10 -0.000000087424089
11 0.000000030919300
12 -0.000000031983500
13 0.000000166376345
14 -0.000000059587586
15 0.000000061290530
16 0.000000008123180
17 -0.000000004572488
18 0.000000002084476
19 -0.000000019316252
20 0.000000006664701
21 -0.000000007122862
22 0.000000002919643
23 -0.000000012397302
24 0.000000009477659
25 -0.000000001288305
26 0.000000000053859
27 0.000000003322497
28 0.000000003806202
29 -0.000000002658967
30 -0.000000001147235
31 -0.000000005807675
32 0.000000000272632
33 0.000000015166592
34 -0.000000058295302
35 0.000000398767366
36 -0.000000340472064
37 -0.000000017703535
38 0.000000000973925
39 0.000000050338605
40 0.000000006181011
41 0.000000044572584
42 -0.000000050753595
43 -0.000000024036765
44 0.000000000953631
45 0.000000063680213
46 0.000028766794652
47 0.000023248655584
48 0.000076063076836
49 -0.000146496701097
50 0.000043728173615
51 -0.000082887785813
52 0.000107901996095
53 -0.000074919518177
54 -0.000019161540416
55 -0.000134531539860
56 -0.000046402401504
57 -0.000037497185542
58 -0.000122677983638
59 0.000236285936351
60 -0.000070528325971
61 0.000133684833920
62 -0.000174030581902
63 0.000120836079473
64 0.000030904952535
65 0.000216983198830
66 -0.000023116851741
67 -0.000018666052350
68 -0.000061060150619
69 0.000117639967061
70 -0.000035109408426
71 0.000066537373940
72 -0.000086625455911
73 0.000060152545582
74 0.000015383414561
75 0.000108015826245
76 -0.000013703021322
77 -0.000005697185331
78 -0.000002590705409
79 0.000004765578736
80 -0.000016646024848
81 -0.000008443405222
82 0.000017288437417
83 0.000010427021819
84 -0.000018135932252
85 0.000014763954141
86 0.000009307048972
87 -0.000004756163697
88 0.000001137033637
89 0.000008343668116
90 0.000004934322020
91 0.000025327729363
92 0.000010527131426
93 0.000004791676663
94 -0.000008810614922
95 0.000030777166679
96 0.000015604037622
97 -0.000031961452709
98 -0.000019281062975
99 0.000033524814766
100 -0.000027283107289
101 -0.000017208091990
102 0.000008790936301
103 -0.000002097470300
104 -0.000015423641615
105 -0.000009114332974
106 0.000906146340520
107 0.000267027528679
108 0.003546875536113
109 0.001179954864839
110 0.000052513345700
111 -0.000018059692820
112 -0.000005822482160
113 0.000013806793389
114 -0.000182769880616
115 -0.000058917884097
116 0.000139745634103
117 -0.001084451503120
118 -0.000349620903089
119 0.000829092445933
120 -0.000222225859351
121 -0.000071610325211
122 0.000169884724414
123 0.000026741915043
124 -0.000028068780323
125 0.000001326865280
126 0.000022770246047
127 -0.000054002294573
128 -0.000017407128873
129 -0.000007761408527
130 0.000008137412427
131 -0.000000376003900
132 -0.000006611624813
133 0.000015668369278
134 0.000005047354741
135 -0.000014369158220
136 0.000015063578678
137 -0.000000694420458
138 -0.000012247718335
139 0.000029058089443
140 0.000009350634837
141 0.000002387206950
142 0.000022051522763
143 -0.000019486325393
144 0.000014920742111
145 -0.000018189585345
146 0.000044193098425
147 -0.000018123516321
148 -0.000011395636998
149 -0.000018049449499
150 0.000020382833427
151 -0.000011308639701
152 -0.000080922180603
153 0.000062135898632
154 -0.000039001091751
155 0.000060648688948
156 -0.000149603588781
157 0.000054173224014
158 0.000047919809082
159 0.000066239532871
160 -0.000059660450865
161 0.000906150704839
162 0.000267019845187
163 0.003546968146471
164 0.001179989814726
165 0.000052521432344
166 -0.000008093972633
167 0.000007720050152
168 -0.000020629014038
169 -0.000081911126761
170 0.000078115912973
171 -0.000208791520167
172 -0.000486038377398
173 0.000463570466032
174 -0.001238790352222
175 -0.000099603118211
176 0.000094962332655
177 -0.000253829812829
178 -0.000022141365314
179 -0.000023250463389
180 0.000045391828703
181 -0.000013532346294
182 0.000036161358395
183 -0.000034486463503
184 0.000006424230288
185 0.000006736779486
186 -0.000013161009774
187 0.000003933925713
188 -0.000010492109068
189 0.000010007121573
190 0.000011929375432
191 0.000012482620216
192 -0.000024411995648
193 0.000007289807686
194 -0.000019454274629
195 0.000018540634356
196 0.000027385996856
197 -0.000024103337004
198 -0.000019891876511
199 -0.000000780942664
200 -0.000003373656615
201 0.000010738837398
202 -0.000035961227697
203 0.000035711676630
204 0.000015948915450
205 0.000017336292367
206 -0.000100483772683
207 0.000083726834795
208 0.000063567302509
209 0.000017006917078
210 0.000007792593582
211 -0.000030264199813
212 0.000117806210735
213 -0.000120123930067
214 -0.000055020285921
215 -0.000048793222024
216 0.000906133888718
217 0.000267049856530
218 0.003546608679243
219 0.001179853252694
220 0.000052489866868
221 0.000012579930219
222 0.000016925011654
223 0.000010296206680
224 0.000127321886104
225 0.000171265073424
226 0.000104216257106
227 0.000755353788401
228 0.001016211097261
229 0.000618238051267
230 0.000154790370647
231 0.000208253413778
232 0.000126719767825
233 -0.000004745090972
234 0.000019289622651
235 -0.000014544531679
236 0.000046104588917
237 0.000028051437722
238 0.000037739475145
239 0.000001378025531
240 -0.000005612359585
241 0.000004234334055
242 -0.000013379998540
243 -0.000008135001312
244 -0.000010957945669
245 0.000002533321249
246 -0.000010380652247
247 0.000007847330999
248 -0.000024766571471
249 -0.000015080884446
250 -0.000020299123830
251 -0.000024729091218
252 -0.000007826411499
253 -0.000024088074380
254 0.000028555500201
255 0.000015423131073
256 0.000003840473949
257 0.000004622057190
258 -0.000004922898194
259 0.000028477069108
260 0.000034252504042
261 0.000085426850273
262 0.000025651798711
263 0.000078552382346
264 -0.000087658426999
265 -0.000059262552215
266 -0.000005652066390
267 -0.000026953719590
268 0.000024847052818
269 -0.000099737013642
270 -0.000109130295432
271 0.000906128677242
272 0.000267059139676
273 0.003546506474304
274 0.001179818155833
275 0.000052480938419
276 0.000013577305906
277 -0.000018823842294
278 -0.000003472689301
279 0.000137417543657
280 -0.000190483814081
281 -0.000035148927621
282 0.000815215628996
283 -0.001130190296544
284 -0.000208511874810
285 0.000167082988447
286 -0.000231621800182
287 -0.000042758693471
288 0.000000147273520
289 0.000032018601155
290 -0.000032165874674
291 -0.000055343887918
292 -0.000010210437970
293 0.000014157705529
294 -0.000000037013602
295 -0.000009305925494
296 0.000009342939096
297 0.000016064405441
298 0.000002958322969
299 -0.000004113349013
300 -0.000000089960763
301 -0.000017219668494
302 0.000017309629257
303 0.000029735144711
304 0.000005476437495
305 -0.000007618107311
306 -0.000022522532371
307 -0.000004255679331
308 0.000017219831479
309 0.000046356362264
310 -0.000020443894472
311 -0.000008375830059
312 -0.000016139214221
313 0.000026153487437
314 -0.000014726998190
315 0.000009814348852
316 0.000077560024148
317 0.000012938053643
318 -0.000068813617778
319 -0.000151161314891
320 0.000068679078468
321 0.000037923703714
322 0.000047103623093
323 -0.000086037298934
324 0.000054399452564
325 -0.000021946718619
 Sym=      2.1
 Ene=      -0.9432
 Spin= Alpha
 Occup=    2.000000
1 -0.010953790309606
2 0.79298547402748
3 -0.029246997219265
4 -0.029149274931027
5 -0.078815037537522
6 0.001728443997697
7 -0.000016839602247
8 0.000005938579017
9 -0.000006185178282
10 0.000000880440377
11 -0.000000310566745
12 0.000000323350633
13 -0.000001403823470
14 0.000000495773234
15 -0.000000515971255
16 0.000004388004121
17 -0.000001545970397
18 0.000001611850759
19 0.000000359035334
20 -0.000000126396363