 Entering Gaussian System, Link 0=g09
 Input=geom.com
 Output=geom.log
 Initial command:
 /software/cinetica/g09d1/g09d01/d01/build-node-6-2-59348/src/main/l1.exe "/scratch/cc/139151/Gau-217578.inp" -scrdir="/scratch/cc/139151/"
 Entering Link 1 = /software/cinetica/g09d1/g09d01/d01/build-node-6-2-59348/src/main/l1.exe PID=    217579.
  
 Copyright (c) 1988,1990,1992,1993,1995,1998,2003,2009,2013,
            Gaussian, Inc.  All Rights Reserved.
  
 This is part of the Gaussian(R) 09 program.  It is based on
 the Gaussian(R) 03 system (copyright 2003, Gaussian, Inc.),
 the Gaussian(R) 98 system (copyright 1998, Gaussian, Inc.),
 the Gaussian(R) 94 system (copyright 1995, Gaussian, Inc.),
 the Gaussian 92(TM) system (copyright 1992, Gaussian, Inc.),
 the Gaussian 90(TM) system (copyright 1990, Gaussian, Inc.),
 the Gaussian 88(TM) system (copyright 1988, Gaussian, Inc.),
 the Gaussian 86(TM) system (copyright 1986, Carnegie Mellon
 University), and the Gaussian 82(TM) system (copyright 1983,
 Carnegie Mellon University). Gaussian is a federally registered
 trademark of Gaussian, Inc.
  
 This software contains proprietary and confidential information,
 including trade secrets, belonging to Gaussian, Inc.
  
 This software is provided under written license and may be
 used, copied, transmitted, or stored only in accord with that
 written license.
  
 The following legend is applicable only to US Government
 contracts under FAR:
  
                    RESTRICTED RIGHTS LEGEND
  
 Use, reproduction and disclosure by the US Government is
 subject to restrictions as set forth in subparagraphs (a)
 and (c) of the Commercial Computer Software - Restricted
 Rights clause in FAR 52.227-19.
  
 Gaussian, Inc.
 340 Quinnipiac St., Bldg. 40, Wallingford CT 06492
  
  
 ---------------------------------------------------------------
 Warning -- This program may not be used in any manner that
 competes with the business of Gaussian, Inc. or will provide
 assistance to any competitor of Gaussian, Inc.  The licensee
 of this program is prohibited from giving any competitor of
 Gaussian, Inc. access to this program.  By using this program,
 the user acknowledges that Gaussian, Inc. is engaged in the
 business of creating and licensing software in the field of
 computational chemistry and represents and warrants to the
 licensee that it is not a competitor of Gaussian, Inc. and that
 it will not use this program in any manner prohibited above.
 ---------------------------------------------------------------
  

 Cite this work as:
 Gaussian 09, Revision D.01,
 M. J. Frisch, G. W. Trucks, H. B. Schlegel, G. E. Scuseria, 
 M. A. Robb, J. R. Cheeseman, G. Scalmani, V. Barone, B. Mennucci, 
 G. A. Petersson, H. Nakatsuji, M. Caricato, X. Li, H. P. Hratchian, 
 A. F. Izmaylov, J. Bloino, G. Zheng, J. L. Sonnenberg, M. Hada, 
 M. Ehara, K. Toyota, R. Fukuda, J. Hasegawa, M. Ishida, T. Nakajima, 
 Y. Honda, O. Kitao, H. Nakai, T. Vreven, J. A. Montgomery, Jr., 
 J. E. Peralta, F. Ogliaro, M. Bearpark, J. J. Heyd, E. Brothers, 
 K. N. Kudin, V. N. Staroverov, T. Keith, R. Kobayashi, J. Normand, 
 K. Raghavachari, A. Rendell, J. C. Burant, S. S. Iyengar, J. Tomasi, 
 M. Cossi, N. Rega, J. M. Millam, M. Klene, J. E. Knox, J. B. Cross, 
 V. Bakken, C. Adamo, J. Jaramillo, R. Gomperts, R. E. Stratmann, 
 O. Yazyev, A. J. Austin, R. Cammi, C. Pomelli, J. W. Ochterski, 
 R. L. Martin, K. Morokuma, V. G. Zakrzewski, G. A. Voth, 
 P. Salvador, J. J. Dannenberg, S. Dapprich, A. D. Daniels, 
 O. Farkas, J. B. Foresman, J. V. Ortiz, J. Cioslowski, 
 and D. J. Fox, Gaussian, Inc., Wallingford CT, 2013.
 
 ******************************************
 Gaussian 09:  EM64L-G09RevD.01 24-Apr-2013
                27-May-2023 
 ******************************************
 %mem=400MW
 %chk=tmp
 %NProcShared= 32
 Will use up to   32 processors via shared memory.
 ----------------------------------------------------------------------
 # uwb97xd/aug-cc-pvtz opt=(noeig,intern,maxcyc=50) # int=ultrafine nos
 ym iop(7/33=1) guess=(mix,always)
 ----------------------------------------------------------------------
 1/6=50,10=7,11=1,14=-1,18=40,26=4,38=1/1,3;
 2/12=2,15=1,17=6,18=5,29=3,40=1/2;
 3/5=16,6=1,7=10,11=2,16=1,25=1,30=1,71=1,74=-58,75=-5,116=2/1,2,3;
 4/13=-1/1;
 5/5=2,38=5/2;
 6/7=2,8=2,9=2,10=2,28=1/1;
 7/29=1,30=1,33=1/1,2,3,16;
 1/6=50,10=7,11=1,14=-1,18=40,26=4/3(2);
 2/15=1,29=3/2;
 99//99;
 2/15=1,29=3/2;
 3/5=16,6=1,7=10,11=2,16=1,25=1,30=1,71=1,74=-58,75=-5,116=2/1,2,3;
 4/13=-1/1;
 5/5=2,38=5/2;
 7/30=1,33=1/1,2,3,16;
 1/6=50,11=1,14=-1,18=40,26=4/3(-5);
 2/15=1,29=3/2;
 6/7=2,8=2,9=2,10=2,19=2,28=1/1;
 99/9=1/99;
 ------
 geom 0
 ------
 Symbolic Z-matrix:
 Charge =  0 Multiplicity = 1
 C1
 H2                   C1   R1
 H3                   C1   R2       H2   A2
 H4                   C1   R3       H2   A3       H3   D3       0
 C21                  1    rts      2    aabs1    3    babs1    0
 H22                  C21  R21      1    aabs2    2    babs2    0
 H23                  C21  R22      H22  A22      1    babs3    0
 H24                  C21  R23      H22  A23      H23  D23      0
       Variables:
  BABS3                93.5206                   
  BABS2                59.4019                   
  AABS2                92.1855                   
  BABS1                93.6686                   
  AABS1                92.2267                   
       Constants:
  D3                  179.8076                   
  R21                   1.0782                   
  R22                   1.0782                   
  R23                   1.0782                   
  A22                 119.9721                   
  A23                 120.0207                   
  D23                 179.8076                   
  A3                  120.0207                   
  A2                  119.9721                   
  R3                    1.0782                   
  R2                    1.0782                   
  R1                    1.0782                   
  RTS                   3.2                      
 

 GradGradGradGradGradGradGradGradGradGradGradGradGradGradGradGradGradGrad
 Berny optimization.
 Initialization pass.
                       ----------------------------
                       !    Initial Parameters    !
                       ! (Angstroms and Degrees)  !
 ----------------------                            ----------------------
 !      Name          Value   Derivative information (Atomic Units)     !
 ------------------------------------------------------------------------
 !      BABS3       93.5206   estimate D2E/DX2                          !
 !      BABS2       59.4019   estimate D2E/DX2                          !
 !      AABS2       92.1855   estimate D2E/DX2                          !
 !      BABS1       93.6686   estimate D2E/DX2                          !
 !      AABS1       92.2267   estimate D2E/DX2                          !
 !       D3        179.8076   Frozen                                    !
 !       R21         1.0782   Frozen                                    !
 !       R22         1.0782   Frozen                                    !
 !       R23         1.0782   Frozen                                    !
 !       A22       119.9721   Frozen                                    !
 !       A23       120.0207   Frozen                                    !
 !       D23       179.8076   Frozen                                    !
 !       A3        120.0207   Frozen                                    !
 !       A2        119.9721   Frozen                                    !
 !       R3          1.0782   Frozen                                    !
 !       R2          1.0782   Frozen                                    !
 !       R1          1.0782   Frozen                                    !
 !       RTS         3.2      Frozen                                    !
 ------------------------------------------------------------------------
 Trust Radius=3.00D-01 FncErr=1.00D-07 GrdErr=1.00D-06
 Number of steps in this run=     50 maximum allowed number of steps=    100.
 GradGradGradGradGradGradGradGradGradGradGradGradGradGradGradGradGradGrad

 ---------------------------------------------------------------------------------------------------
                            Z-MATRIX (ANGSTROMS AND DEGREES)
   CD    Cent   Atom    N1       Length/X        N2       Alpha/Y        N3        Beta/Z          J
 ---------------------------------------------------------------------------------------------------
      1      1  C 
      2      2  H        1   1.078200(     1)
      3      3  H        1   1.078200(     2)      2  119.972(     8)
      4      4  H        1   1.078200(     3)      2  120.021(     9)      3  179.808(    14)      0
      5      5  C        1   3.200000(     4)      2   92.227(    10)      3   93.669(    15)      0
      6      6  H        5   1.078200(     5)      1   92.186(    11)      2   59.402(    16)      0
      7      7  H        5   1.078200(     6)      6  119.972(    12)      1   93.521(    17)      0
      8      8  H        5   1.078200(     7)      6  120.021(    13)      7  179.808(    18)      0
 ---------------------------------------------------------------------------------------------------
                         Z-Matrix orientation:                         
 ---------------------------------------------------------------------
 Center     Atomic      Atomic             Coordinates (Angstroms)
 Number     Number       Type             X           Y           Z
 ---------------------------------------------------------------------
      1          6           0        0.000000    0.000000    0.000000
      2          1           0        0.000000    0.000000    1.078200
      3          1           0        0.934011    0.000000   -0.538645
      4          1           0       -0.933548   -0.003135   -0.539437
      5          6           0       -0.204599   -3.191031   -0.124331
      6          1           0       -1.134086   -3.193958    0.422076
      7          1           0        0.729529   -3.308276    0.401192
      8          1           0       -0.209303   -3.074029   -1.196154
 ---------------------------------------------------------------------
                    Distance matrix (angstroms):
                    1          2          3          4          5
     1  C    0.000000
     2  H    1.078200   0.000000
     3  H    1.078200   1.867235   0.000000
     4  H    1.078200   1.867692   1.867562   0.000000
     5  C    3.200000   3.416229   3.413322   3.296417   0.000000
     6  H    3.415504   3.452248   3.924459   3.338574   1.078200
     7  H    3.411430   3.454742   3.445257   3.817665   1.078200
     8  H    3.305184   3.829640   3.345017   3.222763   1.078200
                    6          7          8
     6  H    0.000000
     7  H    1.867235   0.000000
     8  H    1.867692   1.867562   0.000000
 Symmetry turned off by external request.
 Stoichiometry    C2H6
 Framework group  C1[X(C2H6)]
 Deg. of freedom    18
 Full point group                 C1      NOp   1
 Rotational constants (GHZ):     72.0900171      6.2826305      6.2819718
 Standard basis: Aug-CC-pVTZ (5D, 7F)
   230 basis functions,   306 primitive gaussians,   260 cartesian basis functions
     9 alpha electrons        9 beta electrons
       nuclear repulsion energy        32.3184300176 Hartrees.
 NAtoms=    8 NActive=    8 NUniq=    8 SFac= 1.00D+00 NAtFMM=   60 NAOKFM=F Big=F
 Integral buffers will be    131072 words long.
 Raffenetti 2 integral format.
 Two-electron integral symmetry is turned off.
 Nuclear repulsion after empirical dispersion term =       32.3167572657 Hartrees.
 One-electron integrals computed using PRISM.
 NBasis=   230 RedAO= T EigKep=  6.87D-05  NBF=   230
 NBsUse=   230 1.00D-06 EigRej= -1.00D+00 NBFU=   230
 ExpMin= 2.53D-02 ExpMax= 8.24D+03 ExpMxC= 2.81D+02 IAcc=3 IRadAn=         5 AccDes= 0.00D+00
 Harris functional with IExCor= 4639 and IRadAn=       5 diagonalized for initial guess.
 HarFok:  IExCor= 4639 AccDes= 0.00D+00 IRadAn=         5 IDoV= 1 UseB2=F ITyADJ=14
 ICtDFT=  3500011 ScaDFX=  1.000000  1.000000  1.000000  1.000000
 FoFCou: FMM=F IPFlag=           0 FMFlag=      100000 FMFlg1=           0
         NFxFlg=           0 DoJE=T BraDBF=F KetDBF=T FulRan=T
         wScrn=  0.000000 ICntrl=     500 IOpCl=  0 I1Cent=   200000004 NGrid=           0
         NMat0=    1 NMatS0=      1 NMatT0=    0 NMatD0=    1 NMtDS0=    0 NMtDT0=    0
 Symmetry not used in FoFCou.
 Mixing orbitals, IMix= 1 IMixAn=  0 NRI=1 NE=    9 Coef=  7.07106781D-01  7.07106781D-01
 Mixing orbitals, IMix= 1 IMixAn=  0 NRI=1 NE=    9 Coef= -7.07106781D-01  7.07106781D-01
 Initial guess <Sx>= 0.0000 <Sy>= 0.0000 <Sz>= 0.0000 <S**2>= 1.0000 S= 0.6180
 Requested convergence on RMS density matrix=1.00D-08 within 128 cycles.
 Requested convergence on MAX density matrix=1.00D-06.
 Requested convergence on             energy=1.00D-06.
 No special actions if energy rises.
 SCF Done:  E(UwB97XD) =  -79.6846130357     A.U. after   11 cycles
            NFock= 11  Conv=0.35D-08     -V/T= 2.0073
 <Sx>= 0.0000 <Sy>= 0.0000 <Sz>= 0.0000 <S**2>= 0.8983 S= 0.5716
 <L.S>=  0.00000000000    
 Annihilation of the first spin contaminant:
 S**2 before annihilation     0.8983,   after     0.0470

 **********************************************************************

            Population analysis using the SCF density.

 **********************************************************************

 Alpha  occ. eigenvalues --  -10.29562 -10.28509  -0.78383  -0.73999  -0.50730
 Alpha  occ. eigenvalues --   -0.50719  -0.49419  -0.49396  -0.31077
 Alpha virt. eigenvalues --    0.00695   0.03298   0.04659   0.04679   0.05531
 Alpha virt. eigenvalues --    0.06855   0.06910   0.11017   0.12138   0.12261
 Alpha virt. eigenvalues --    0.13107   0.14053   0.14108   0.15381   0.16157
 Alpha virt. eigenvalues --    0.19903   0.19988   0.21610   0.21672   0.23688
 Alpha virt. eigenvalues --    0.23795   0.28656   0.29632   0.31145   0.31276
 Alpha virt. eigenvalues --    0.31386   0.32159   0.35096   0.35211   0.35382
 Alpha virt. eigenvalues --    0.35471   0.35842   0.36132   0.37422   0.38697
 Alpha virt. eigenvalues --    0.38718   0.39458   0.40874   0.41125   0.41181
 Alpha virt. eigenvalues --    0.41762   0.41816   0.43455   0.43648   0.46319
 Alpha virt. eigenvalues --    0.47205   0.47353   0.48042   0.48168   0.53403
 Alpha virt. eigenvalues --    0.66524   0.70275   0.70783   0.70976   0.71588
 Alpha virt. eigenvalues --    0.71641   0.75966   0.76259   0.77176   0.77281
 Alpha virt. eigenvalues --    0.78833   0.79934   0.80292   0.81815   0.83283
 Alpha virt. eigenvalues --    0.83842   0.86337   0.86668   0.88346   0.90077
 Alpha virt. eigenvalues --    0.90375   0.91169   0.91612   0.94872   0.95642
 Alpha virt. eigenvalues --    0.98189   1.00250   1.01072   1.01246   1.01759
 Alpha virt. eigenvalues --    1.01826   1.04413   1.04689   1.08242   1.08518
 Alpha virt. eigenvalues --    1.08945   1.09470   1.10324   1.10488   1.12516
 Alpha virt. eigenvalues --    1.14695   1.15193   1.20356   1.20396   1.21128
 Alpha virt. eigenvalues --    1.21246   1.24081   1.29328   1.37849   1.38377
 Alpha virt. eigenvalues --    1.39293   1.40470   1.46536   1.50176   1.50498
 Alpha virt. eigenvalues --    1.50986   1.51721   1.51780   1.52983   1.53040
 Alpha virt. eigenvalues --    1.56160   1.56286   1.57821   1.61598   1.61902
 Alpha virt. eigenvalues --    1.62072   1.63697   1.69868   1.80405   1.80572
 Alpha virt. eigenvalues --    1.81312   1.81472   1.83827   1.89355   1.97319
 Alpha virt. eigenvalues --    1.98119   1.99135   1.99942   2.05642   2.06933
 Alpha virt. eigenvalues --    2.07428   2.07787   2.08280   2.09313   2.11407
 Alpha virt. eigenvalues --    2.73155   2.73954   2.82708   2.94444   2.96133
 Alpha virt. eigenvalues --    2.96995   2.99171   3.03177   3.03994   3.04914
 Alpha virt. eigenvalues --    3.09884   3.12735   3.35089   3.35313   3.36500
 Alpha virt. eigenvalues --    3.36980   3.37739   3.38911   3.39257   3.43229
 Alpha virt. eigenvalues --    3.43436   3.44195   3.45930   3.47060   3.47859
 Alpha virt. eigenvalues --    3.48455   3.50590   3.51166   3.61841   3.65618
 Alpha virt. eigenvalues --    3.68004   3.72157   3.74382   3.74643   3.75998
 Alpha virt. eigenvalues --    3.76143   3.77054   3.87120   4.02641   4.03896
 Alpha virt. eigenvalues --    4.04217   4.05291   4.15868   4.17304   4.17510
 Alpha virt. eigenvalues --    4.18936   4.19081   4.20208   4.45392   4.53775
 Alpha virt. eigenvalues --    4.55841   4.56225   4.60750   4.61147   4.61206
 Alpha virt. eigenvalues --    4.61425   4.63428   4.64876   4.74631   4.80039
 Alpha virt. eigenvalues --    4.83467   4.85654   5.05382   5.05402   5.05934
 Alpha virt. eigenvalues --    5.05957   5.11481   5.11660   5.14387   5.14558
 Alpha virt. eigenvalues --    5.18594   5.18975   5.19375   5.19597   5.29058
 Alpha virt. eigenvalues --    5.31420   6.06321   6.10203   6.22861   6.23529
 Alpha virt. eigenvalues --    6.26108   6.26287   6.40237   6.42800  15.99774
 Alpha virt. eigenvalues --   16.06932
  Beta  occ. eigenvalues --  -10.29565 -10.28506  -0.78387  -0.73996  -0.50732
  Beta  occ. eigenvalues --   -0.50724  -0.49414  -0.49395  -0.31080
  Beta virt. eigenvalues --    0.00698   0.03298   0.04659   0.04680   0.05532
  Beta virt. eigenvalues --    0.06855   0.06911   0.11019   0.12141   0.12262
  Beta virt. eigenvalues --    0.13105   0.14056   0.14107   0.15384   0.16162
  Beta virt. eigenvalues --    0.19902   0.19988   0.21611   0.21670   0.23690
  Beta virt. eigenvalues --    0.23800   0.28647   0.29641   0.31145   0.31278
  Beta virt. eigenvalues --    0.31383   0.32159   0.35094   0.35214   0.35385
  Beta virt. eigenvalues --    0.35471   0.35835   0.36133   0.37422   0.38696
  Beta virt. eigenvalues --    0.38722   0.39462   0.40875   0.41119   0.41175
  Beta virt. eigenvalues --    0.41766   0.41822   0.43454   0.43651   0.46319
  Beta virt. eigenvalues --    0.47209   0.47357   0.48042   0.48164   0.53405
  Beta virt. eigenvalues --    0.66528   0.70279   0.70755   0.70996   0.71579
  Beta virt. eigenvalues --    0.71649   0.75961   0.76266   0.77186   0.77279
  Beta virt. eigenvalues --    0.78786   0.79973   0.80292   0.81816   0.83274
  Beta virt. eigenvalues --    0.83875   0.86315   0.86675   0.88340   0.90075
  Beta virt. eigenvalues --    0.90374   0.91163   0.91625   0.94875   0.95638
  Beta virt. eigenvalues --    0.98189   1.00252   1.01062   1.01252   1.01749
  Beta virt. eigenvalues --    1.01845   1.04405   1.04689   1.08256   1.08504
  Beta virt. eigenvalues --    1.08924   1.09482   1.10326   1.10505   1.12513
  Beta virt. eigenvalues --    1.14689   1.15205   1.20322   1.20441   1.21127
  Beta virt. eigenvalues --    1.21241   1.24074   1.29326   1.37852   1.38390
  Beta virt. eigenvalues --    1.39279   1.40473   1.46536   1.50169   1.50508
  Beta virt. eigenvalues --    1.50986   1.51714   1.51786   1.52984   1.53039
  Beta virt. eigenvalues --    1.56173   1.56288   1.57821   1.61551   1.61906
  Beta virt. eigenvalues --    1.62071   1.63735   1.69858   1.80416   1.80570
  Beta virt. eigenvalues --    1.81304   1.81472   1.83830   1.89355   1.97301
  Beta virt. eigenvalues --    1.98132   1.99149   1.99943   2.05639   2.06942
  Beta virt. eigenvalues --    2.07405   2.07806   2.08267   2.09328   2.11402
  Beta virt. eigenvalues --    2.73143   2.73993   2.82683   2.94517   2.96112
  Beta virt. eigenvalues --    2.97008   2.99157   3.03077   3.04040   3.04877
  Beta virt. eigenvalues --    3.09904   3.12764   3.35117   3.35281   3.36491
  Beta virt. eigenvalues --    3.37016   3.37706   3.38894   3.39286   3.43219
  Beta virt. eigenvalues --    3.43438   3.44193   3.45959   3.46979   3.47925
  Beta virt. eigenvalues --    3.48451   3.50560   3.51173   3.61857   3.65625
  Beta virt. eigenvalues --    3.68003   3.72163   3.74382   3.74625   3.75996
  Beta virt. eigenvalues --    3.76145   3.77055   3.87123   4.02652   4.03761
  Beta virt. eigenvalues --    4.04218   4.05410   4.15867   4.17313   4.17517
  Beta virt. eigenvalues --    4.18915   4.19085   4.20214   4.45392   4.53780
  Beta virt. eigenvalues --    4.55840   4.56229   4.60773   4.61138   4.61192
  Beta virt. eigenvalues --    4.61407   4.63432   4.64886   4.74632   4.80036
  Beta virt. eigenvalues --    4.83468   4.85654   5.05362   5.05397   5.05936
  Beta virt. eigenvalues --    5.05975   5.11543   5.11703   5.14312   5.14495
  Beta virt. eigenvalues --    5.18586   5.18913   5.19430   5.19648   5.29062
  Beta virt. eigenvalues --    5.31415   6.06326   6.10198   6.22873   6.23527
  Beta virt. eigenvalues --    6.26100   6.26285   6.40237   6.42799  15.99770
  Beta virt. eigenvalues --   16.06937
          Condensed to atoms (all electrons):
               1          2          3          4          5          6
     1  C    6.059541   0.335476   0.334305   0.329898   0.037152  -0.000879
     2  H    0.335476   0.284639   0.009778   0.010314  -0.001404  -0.000365
     3  H    0.334305   0.009778   0.284522   0.010079  -0.000877  -0.000396
     4  H    0.329898   0.010314   0.010079   0.288103  -0.002416  -0.000519
     5  C    0.037152  -0.001404  -0.000877  -0.002416   6.059704   0.334463
     6  H   -0.000879  -0.000365  -0.000396  -0.000519   0.334463   0.284408
     7  H   -0.001552  -0.000365  -0.000376  -0.000530   0.335352   0.009806
     8  H   -0.002284  -0.000510  -0.000511  -0.000732   0.330076   0.010014
               7          8
     1  C   -0.001552  -0.002284
     2  H   -0.000365  -0.000510
     3  H   -0.000376  -0.000511
     4  H   -0.000530  -0.000732
     5  C    0.335352   0.330076
     6  H    0.009806   0.010014
     7  H    0.284734   0.010336
     8  H    0.010336   0.287687
          Atomic-Atomic Spin Densities.
               1          2          3          4          5          6
     1  C    0.971233   0.008017   0.007038   0.006008   0.000057  -0.002407
     2  H    0.008017  -0.027953   0.003026   0.003092   0.002763   0.000047
     3  H    0.007038   0.003026  -0.027977   0.003172   0.002424  -0.000000
     4  H    0.006008   0.003092   0.003172  -0.027632   0.003654   0.000085
     5  C    0.000057   0.002763   0.002424   0.003654  -0.970626  -0.007119
     6  H   -0.002407   0.000047  -0.000000   0.000085  -0.007119   0.028063
     7  H   -0.002879  -0.000010  -0.000058   0.000045  -0.008229  -0.003015
     8  H   -0.003529  -0.000049  -0.000078   0.000008  -0.006255  -0.003136
               7          8
     1  C   -0.002879  -0.003529
     2  H   -0.000010  -0.000049
     3  H   -0.000058  -0.000078
     4  H    0.000045   0.000008
     5  C   -0.008229  -0.006255
     6  H   -0.003015  -0.003136
     7  H    0.027941  -0.003049
     8  H   -0.003049   0.027709
 Mulliken charges and spin densities:
               1          2
     1  C   -1.091656   0.983538
     2  H    0.362438  -0.011068
     3  H    0.363476  -0.012452
     4  H    0.365803  -0.011569
     5  C   -1.092049  -0.983332
     6  H    0.363468   0.012516
     7  H    0.362594   0.010746
     8  H    0.365925   0.011621
 Sum of Mulliken charges =  -0.00000  -0.00000
 Mulliken charges and spin densities with hydrogens summed into heavy atoms:
               1          2
     1  C    0.000062   0.948449
     5  C   -0.000062  -0.948449
 Electronic spatial extent (au):  <R**2>=            388.9643
 Charge=             -0.0000 electrons
 Dipole moment (field-independent basis, Debye):
    X=             -0.0007    Y=             -0.0042    Z=             -0.0013  Tot=              0.0045
 Quadrupole moment (field-independent basis, Debye-Ang):
   XX=            -14.4467   YY=            -17.9985   ZZ=            -14.4618
   XY=             -0.0989   XZ=             -0.0121   YZ=             -0.1934
 Traceless Quadrupole moment (field-independent basis, Debye-Ang):
   XX=              1.1890   YY=             -2.3628   ZZ=              1.1739
   XY=             -0.0989   XZ=             -0.0121   YZ=             -0.1934
 Octapole moment (field-independent basis, Debye-Ang**2):
  XXX=              4.4420  YYY=             86.0105  ZZZ=              2.7074  XYY=              2.5680
  XXY=             23.0077  XXZ=              0.8911  XZZ=              1.4578  YZZ=             23.2652
  YYZ=              2.4206  XYZ=              0.0422
 Hexadecapole moment (field-independent basis, Debye-Ang**3):
 XXXX=            -31.7351 YYYY=           -574.6092 ZZZZ=            -30.1284 XXXY=            -14.1111
 XXXZ=             -1.1115 YYYX=            -21.0951 YYYZ=            -16.7021 ZZZX=             -0.3569
 ZZZY=             -5.7212 XXYY=            -83.3500 XXZZ=            -10.6033 YYZZ=            -84.5660
 XXYZ=             -5.7568 YYXZ=             -0.3666 ZZXY=             -4.6682
 N-N= 3.231675726569D+01 E-N=-2.484281523259D+02  KE= 7.910388562889D+01
                          Isotropic Fermi Contact Couplings
        Atom                 a.u.       MegaHertz       Gauss      10(-4) cm-1
     1  C(13)              0.00955       5.37077       1.91642       1.79149
     2  H(1)              -0.01361     -30.42802     -10.85747     -10.14969
     3  H(1)              -0.01358     -30.34766     -10.82880     -10.12289
     4  H(1)              -0.01379     -30.80988     -10.99373     -10.27707
     5  C(13)             -0.00964      -5.41630      -1.93267      -1.80668
     6  H(1)               0.01358      30.35157      10.83020      10.12419
     7  H(1)               0.01363      30.45792      10.86814      10.15967
     8  H(1)               0.01377      30.76609      10.97811      10.26246
 --------------------------------------------------------
       Center         ----  Spin Dipole Couplings  ----
                      3XX-RR        3YY-RR        3ZZ-RR
 --------------------------------------------------------
     1   Atom       -0.535329      1.070532     -0.535203
     2   Atom       -0.069539     -0.003988      0.073527
     3   Atom        0.037479     -0.003856     -0.033623
     4   Atom        0.038509     -0.005378     -0.033130
     5   Atom        0.528978     -1.045274      0.516296
     6   Atom       -0.036800      0.005009      0.031791
     7   Atom       -0.038816      0.004306      0.034510
     8   Atom        0.068802      0.003875     -0.072677
 --------------------------------------------------------
                        XY            XZ            YZ
 --------------------------------------------------------
     1   Atom       -0.003040     -0.000152     -0.001491
     2   Atom       -0.000766     -0.000360     -0.003831
     3   Atom       -0.003681     -0.062070      0.001325
     4   Atom        0.002833      0.062062      0.001727
     5   Atom       -0.098641     -0.010861     -0.173879
     6   Atom       -0.001263      0.062119     -0.009306
     7   Atom        0.006483     -0.061172     -0.001873
     8   Atom       -0.003749     -0.000770      0.011670
 --------------------------------------------------------


 ---------------------------------------------------------------------------------
              Anisotropic Spin Dipole Couplings in Principal Axis System
 ---------------------------------------------------------------------------------

       Atom             a.u.   MegaHertz   Gauss  10(-4) cm-1        Axes

              Baa    -0.5354   -71.851   -25.638   -23.967  0.8332  0.0021  0.5529
     1 C(13)  Bbb    -0.5351   -71.805   -25.622   -23.952 -0.5529 -0.0003  0.8333
              Bcc     1.0705   143.656    51.260    47.919 -0.0019  1.0000 -0.0009
 
              Baa    -0.0695   -37.108   -13.241   -12.378  0.9999  0.0118  0.0028
     2 H(1)   Bbb    -0.0042    -2.224    -0.793    -0.742 -0.0120  0.9987  0.0492
              Bcc     0.0737    39.332    14.035    13.120 -0.0022 -0.0492  0.9988
 
              Baa    -0.0696   -37.140   -13.253   -12.389  0.5017  0.0107  0.8650
     3 H(1)   Bbb    -0.0040    -2.155    -0.769    -0.719  0.0376  0.9987 -0.0341
              Bcc     0.0736    39.296    14.022    13.108  0.8642 -0.0496 -0.5007
 
              Baa    -0.0690   -36.798   -13.130   -12.275 -0.5000 -0.0012  0.8660
     4 H(1)   Bbb    -0.0055    -2.943    -1.050    -0.982 -0.0366  0.9991 -0.0197
              Bcc     0.0745    39.741    14.181    13.256  0.8652  0.0415  0.4997
 
              Baa    -1.0706  -143.659   -51.261   -47.919  0.0619  0.9921  0.1091
     5 C(13)  Bbb     0.5351    71.810    25.624    23.953  0.9974 -0.0654  0.0286
              Bcc     0.5354    71.849    25.637    23.966 -0.0356 -0.1071  0.9936
 
              Baa    -0.0736   -39.286   -14.018   -13.104  0.8588 -0.0466 -0.5102
     6 H(1)   Bbb     0.0040     2.143     0.765     0.715  0.1077  0.9900  0.0909
              Bcc     0.0696    37.143    13.254    12.390  0.5008 -0.1330  0.8553
 
              Baa    -0.0738   -39.353   -14.042   -13.127  0.8695 -0.0605  0.4902
     7 H(1)   Bbb     0.0042     2.259     0.806     0.754  0.0161  0.9954  0.0942
              Bcc     0.0695    37.094    13.236    12.373 -0.4937 -0.0740  0.8665
 
              Baa    -0.0744   -39.705   -14.168   -13.244  0.0015 -0.1474  0.9891
     8 H(1)   Bbb     0.0054     2.873     1.025     0.958  0.0601  0.9873  0.1470
              Bcc     0.0690    36.833    13.143    12.286  0.9982 -0.0593 -0.0103
 

 ---------------------------------------------------------------------------------

 DipInt: DoE/N= T T RetVal/Mat= T F Init=T NMatP=  1 IDeriv=0 Min/MaxMlt=  1  1
 Entering OneElI...
 Multipole integrals L=1 to 1 MinM= 0 MaxM= 0.
 Requested accuracy = 0.1000D-12
 PrsmSu:  NPrtUS=   1 ThrOK=F IAlg=1 NPAlg=1 LenDen=           0.
 Prism:   IPart=     0 DynPar=F LinDyn=F Incr=          33.
 PRISM was handed   419151977 working-precision words and  3398 shell-pairs
 IPart=  0 NShTot=        3398 NBatch=          43 AvBLen=        79.0
 PrSmSu:  NxtVal=             34.
 Entering OneElI...
 Calculate overlap and kinetic energy integrals
    NBasis = 260  MinDer = 1  MaxDer = 1
 Requested accuracy = 0.1000D-12
 PrsmSu:  NPrtUS=  32 ThrOK=T IAlg=1 NPAlg=1 LenDen=           0.
 Prism:   IPart=     0 DynPar=F LinDyn=F Incr=           1.
 PRISM was handed    13041866 working-precision words and  3402 shell-pairs
 PRISM was handed    13041866 working-precision words and  3402 shell-pairs
 PRISM was handed    13041866 working-precision words and  3402 shell-pairs
 PRISM was handed    13041866 working-precision words and  3402 shell-pairs
 PRISM was handed    13041866 working-precision words and  3402 shell-pairs
 PRISM was handed    13041866 working-precision words and  3402 shell-pairs
 PRISM was handed    13041866 working-precision words and  3402 shell-pairs
 PRISM was handed    13041866 working-precision words and  3402 shell-pairs
 PRISM was handed    13041866 working-precision words and  3402 shell-pairs
 PRISM was handed    13041866 working-precision words and  3402 shell-pairs
 PRISM was handed    13041866 working-precision words and  3402 shell-pairs
 PRISM was handed    13041866 working-precision words and  3402 shell-pairs
 PRISM was handed    13041866 working-precision words and  3402 shell-pairs
 PRISM was handed    13041866 working-precision words and  3402 shell-pairs
 PRISM was handed    13041866 working-precision words and  3402 shell-pairs
 PRISM was handed    13041866 working-precision words and  3402 shell-pairs
 PRISM was handed    13041866 working-precision words and  3402 shell-pairs
 PRISM was handed    13041866 working-precision words and  3402 shell-pairs
 PRISM was handed    13041866 working-precision words and  3402 shell-pairs
 PRISM was handed    13041866 working-precision words and  3402 shell-pairs
 PRISM was handed    13041866 working-precision words and  3402 shell-pairs
 PRISM was handed    13041866 working-precision words and  3402 shell-pairs
 PRISM was handed    13041866 working-precision words and  3402 shell-pairs
 PRISM was handed    13041866 working-precision words and  3402 shell-pairs
 PRISM was handed    13041866 working-precision words and  3402 shell-pairs
 PRISM was handed    13041866 working-precision words and  3402 shell-pairs
 PRISM was handed    13041866 working-precision words and  3402 shell-pairs
 PRISM was handed    13041866 working-precision words and  3402 shell-pairs
 PRISM was handed    13041866 working-precision words and  3402 shell-pairs
 PRISM was handed    13041866 working-precision words and  3402 shell-pairs
 PRISM was handed    13041866 working-precision words and  3402 shell-pairs
 PRISM was handed    13041866 working-precision words and  3402 shell-pairs
 IPart=  0 NShTot=         134 NBatch=          42 AvBLen=         3.2
 IPart= 12 NShTot=         105 NBatch=          21 AvBLen=         5.0
 IPart= 19 NShTot=          98 NBatch=          21 AvBLen=         4.7
 IPart= 21 NShTot=          98 NBatch=          21 AvBLen=         4.7
 IPart= 18 NShTot=          98 NBatch=          21 AvBLen=         4.7
 IPart=  6 NShTot=         116 NBatch=          27 AvBLen=         4.3
 IPart= 31 NShTot=          95 NBatch=          20 AvBLen=         4.8
 IPart= 14 NShTot=         105 NBatch=          21 AvBLen=         5.0
 IPart=  1 NShTot=         132 NBatch=          40 AvBLen=         3.3
 IPart= 10 NShTot=         110 NBatch=          22 AvBLen=         5.0
 IPart= 25 NShTot=          96 NBatch=          20 AvBLen=         4.8
 IPart=  8 NShTot=         112 NBatch=          24 AvBLen=         4.7
 IPart= 26 NShTot=          95 NBatch=          20 AvBLen=         4.8
 IPart= 30 NShTot=          95 NBatch=          20 AvBLen=         4.8
 IPart=  2 NShTot=         125 NBatch=          33 AvBLen=         3.8
 IPart= 27 NShTot=          95 NBatch=          20 AvBLen=         4.8
 IPart=  4 NShTot=         122 NBatch=          33 AvBLen=         3.7
 IPart= 23 NShTot=          98 NBatch=          21 AvBLen=         4.7
 IPart= 29 NShTot=          95 NBatch=          20 AvBLen=         4.8
 IPart= 24 NShTot=          96 NBatch=          20 AvBLen=         4.8
 IPart=  7 NShTot=         116 NBatch=          27 AvBLen=         4.3
 IPart=  5 NShTot=         122 NBatch=          33 AvBLen=         3.7
 IPart=  3 NShTot=         125 NBatch=          33 AvBLen=         3.8
 IPart= 13 NShTot=         105 NBatch=          21 AvBLen=         5.0
 IPart= 16 NShTot=          99 NBatch=          21 AvBLen=         4.7
 IPart= 17 NShTot=          99 NBatch=          21 AvBLen=         4.7
 IPart= 20 NShTot=          98 NBatch=          21 AvBLen=         4.7
 IPart= 22 NShTot=          98 NBatch=          21 AvBLen=         4.7
 IPart= 11 NShTot=         109 NBatch=          22 AvBLen=         5.0
 IPart= 15 NShTot=         105 NBatch=          21 AvBLen=         5.0
 IPart= 28 NShTot=          95 NBatch=          20 AvBLen=         4.8
 IPart=  9 NShTot=         111 NBatch=          23 AvBLen=         4.8
 PrSmSu:  NxtVal=             33.
 Entering OneElI...
 Calculate potential energy integrals
    NBasis = 260  MinDer = 1  MaxDer = 1
 Requested accuracy = 0.1000D-12
 PrsmSu:  NPrtUS=  32 ThrOK=T IAlg=1 NPAlg=1 LenDen=           0.
 Prism:   IPart=     0 DynPar=F LinDyn=F Incr=           8.
 PRISM was handed    13048452 working-precision words and  3342 shell-pairs
 PRISM was handed    13048452 working-precision words and  3342 shell-pairs
 PRISM was handed    13048452 working-precision words and  3342 shell-pairs
 PRISM was handed    13048452 working-precision words and  3342 shell-pairs
 PRISM was handed    13048452 working-precision words and  3342 shell-pairs
 PRISM was handed    13048452 working-precision words and  3342 shell-pairs
 PRISM was handed    13048452 working-precision words and  3342 shell-pairs
 PRISM was handed    13048452 working-precision words and  3342 shell-pairs
 PRISM was handed    13048452 working-precision words and  3342 shell-pairs
 PRISM was handed    13048452 working-precision words and  3342 shell-pairs
 PRISM was handed    13048452 working-precision words and  3342 shell-pairs
 PRISM was handed    13048452 working-precision words and  3342 shell-pairs
 PRISM was handed    13048452 working-precision words and  3342 shell-pairs
 PRISM was handed    13048452 working-precision words and  3342 shell-pairs
 PRISM was handed    13048452 working-precision words and  3342 shell-pairs
 PRISM was handed    13048452 working-precision words and  3342 shell-pairs
 PRISM was handed    13048452 working-precision words and  3342 shell-pairs
 PRISM was handed    13048452 working-precision words and  3342 shell-pairs
 PRISM was handed    13048452 working-precision words and  3342 shell-pairs
 PRISM was handed    13048452 working-precision words and  3342 shell-pairs
 PRISM was handed    13048452 working-precision words and  3342 shell-pairs
 PRISM was handed    13048452 working-precision words and  3342 shell-pairs
 PRISM was handed    13048452 working-precision words and  3342 shell-pairs
 PRISM was handed    13048452 working-precision words and  3342 shell-pairs
 PRISM was handed    13048452 working-precision words and  3342 shell-pairs
 PRISM was handed    13048452 working-precision words and  3342 shell-pairs
 PRISM was handed    13048452 working-precision words and  3342 shell-pairs
 PRISM was handed    13048452 working-precision words and  3342 shell-pairs
 PRISM was handed    13048452 working-precision words and  3342 shell-pairs
 PRISM was handed    13048452 working-precision words and  3342 shell-pairs
 PRISM was handed    13048452 working-precision words and  3342 shell-pairs
 PRISM was handed    13048452 working-precision words and  3342 shell-pairs
 IPart= 30 NShTot=         736 NBatch=          92 AvBLen=         8.0
 IPart= 22 NShTot=         768 NBatch=          96 AvBLen=         8.0
 IPart= 20 NShTot=         768 NBatch=          96 AvBLen=         8.0
 IPart= 24 NShTot=         760 NBatch=          95 AvBLen=         8.0
 IPart= 15 NShTot=         816 NBatch=         102 AvBLen=         8.0
 IPart= 28 NShTot=         736 NBatch=          92 AvBLen=         8.0
 IPart= 17 NShTot=         792 NBatch=          99 AvBLen=         8.0
 IPart= 26 NShTot=         760 NBatch=          95 AvBLen=         8.0
 IPart= 13 NShTot=         832 NBatch=         104 AvBLen=         8.0
 IPart= 11 NShTot=         832 NBatch=         104 AvBLen=         8.0
 IPart=  9 NShTot=         888 NBatch=         111 AvBLen=         8.0
 IPart= 31 NShTot=         736 NBatch=          92 AvBLen=         8.0
 IPart=  7 NShTot=         912 NBatch=         114 AvBLen=         8.0
 IPart=  5 NShTot=         968 NBatch=         121 AvBLen=         8.0
 IPart= 18 NShTot=         776 NBatch=          97 AvBLen=         8.0
 IPart= 16 NShTot=         792 NBatch=          99 AvBLen=         8.0
 IPart= 10 NShTot=         840 NBatch=         105 AvBLen=         8.0
 IPart=  3 NShTot=         968 NBatch=         121 AvBLen=         8.0
 IPart= 14 NShTot=         816 NBatch=         102 AvBLen=         8.0
 IPart=  0 NShTot=        1056 NBatch=         132 AvBLen=         8.0
 IPart=  8 NShTot=         888 NBatch=         111 AvBLen=         8.0
 IPart= 12 NShTot=         832 NBatch=         104 AvBLen=         8.0
 IPart= 19 NShTot=         776 NBatch=          97 AvBLen=         8.0
 IPart= 25 NShTot=         760 NBatch=          95 AvBLen=         8.0
 IPart=  6 NShTot=         912 NBatch=         114 AvBLen=         8.0
 IPart=  4 NShTot=         968 NBatch=         121 AvBLen=         8.0
 IPart= 21 NShTot=         768 NBatch=          96 AvBLen=         8.0
 IPart=  2 NShTot=         968 NBatch=         121 AvBLen=         8.0
 IPart= 27 NShTot=         760 NBatch=          95 AvBLen=         8.0
 IPart= 29 NShTot=         736 NBatch=          92 AvBLen=         8.0
 IPart= 23 NShTot=         768 NBatch=          96 AvBLen=         8.0
 IPart=  1 NShTot=        1048 NBatch=         131 AvBLen=         8.0
 PrSmSu:  NxtVal=            257.
 l701 out
 I=    0 X=  -2.678671588751D-04 Y=  -1.669141569235D-03 Z=  -5.204307722382D-04
 I=    1 X=   9.723175907679D-02 Y=   1.379083406462D+00 Z=   5.712545574848D-02
 I=    2 X=   1.691805405820D-02 Y=   2.565950992811D-01 Z=   2.819725807337D+00
 I=    3 X=   2.446393577936D+00 Y=   2.644913595897D-01 Z=  -1.392874597647D+00
 I=    4 X=  -2.421557262755D+00 Y=   2.644435581601D-01 Z=  -1.399743291222D+00
 I=    5 X=  -9.014036745217D-02 Y=  -1.364384905566D+00 Z=  -4.451221860350D-02
 I=    6 X=  -2.436536771872D+00 Y=  -2.715403434905D-01 Z=   1.410028488714D+00
 I=    7 X=   2.418457597736D+00 Y=  -5.620177816052D-01 Z=   1.360582357899D+00
 I=    8 X=  -3.076658672761D-02 Y=   3.332960716862D-02 Z=  -2.810332002226D+00
 ICntrl=      2127.
 Calling FoFJK, ICntrl=      2127 FMM=F ISym2X=0 I1Cent= 0 IOpClX= 1 NMat=1 NMatS=1 NMatT=0.
 FoFJK:  IHMeth= 1 ICntrl=    2127 DoSepK=T KAlg= 0 I1Cent=   0 FoldK=F
 IRaf=         1 NMat=   1 IRICut=       1 DoRegI=T DoRafI=F ISym2E= 0.
 FoFCou: FMM=F IPFlag=           0 FMFlag=      100000 FMFlg1=         800
         NFxFlg=           0 DoJE=F BraDBF=F KetDBF=F FulRan=T
         wScrn=  0.000000 ICntrl=    2527 IOpCl=  0 I1Cent=           0 NGrid=           0
         NMat0=    1 NMatS0=      1 NMatT0=    0 NMatD0=    1 NMtDS0=    0 NMtDT0=    0
 Symmetry not used in FoFCou.
 FoFCou:  KetSym=F NOpSet=  1 NOpAb=1 NOp=  1.
 FoFCou:  CnvScl= 1.00D+00 Thresh= 1.00D-10 IAcrcy=      10.
 PrismS was handed   419081916 working-precision words and  3385 shell-pairs
 FoFCou: LinMIO=F DoNuc=F BraDBF=F KetDBF=F HaveP=T PDBF=F HaveZ=T HaveW=F
         NIJTC =      10 NIJTAt=       0 NIJTCD=       0 NIJTT =      10
         IJTBeg=       1 IJTEnd=      10 KLTBeg=       1 KLTEnd=      10
         IPTBeg=       1 IPTEnd=      10 IPTBCv=       1 IPTECv=      10
         IZTBeg=       1 IZTEnd=      10 IZTBCv=       1 IZTECv=      10
         IWTBeg=      11 IWTEnd=      10 IWTBCv=      11 IWTECv=      10
         INTBeg=       1 INTEnd=       0 IFTBCv=       1 IFTECv=      10
 NCel replicated for PrismC:     1
 CoulSu:  IncDef=  1024 NBBP=        5730805 NTPThr=   100 NPartT=   32 Incr=        1024 LDynOK=F.
 CoulSu:  NPrtUS=  32 ThrOK=T IAlg=1 NPAlg=1 LenDen=           0 LWGrdD=           0 DoCopy=F.
 Enter PrismC: JobTyp=21 DoJE=F Cont=F.
 PrismC:  IPart=     0 DynPar=T LinDyn=F Incr=        1024 UseFst=F UseS4=T IGathr=2.
 PrismC was handed    13045396 working-precision words and  3385 shell-pairs
 Enter PrismC: JobTyp=21 DoJE=F Cont=F.
 Enter PrismC: JobTyp=21 DoJE=F Cont=F.
 Enter PrismC: JobTyp=21 DoJE=F Cont=F.
 Enter PrismC: JobTyp=21 DoJE=F Cont=F.
 Enter PrismC: JobTyp=21 DoJE=F Cont=F.
 Enter PrismC: JobTyp=21 DoJE=F Cont=F.
 Enter PrismC: JobTyp=21 DoJE=F Cont=F.
 Enter PrismC: JobTyp=21 DoJE=F Cont=F.
 Enter PrismC: JobTyp=21 DoJE=F Cont=F.
 Enter PrismC: JobTyp=21 DoJE=F Cont=F.
 Enter PrismC: JobTyp=21 DoJE=F Cont=F.
 Enter PrismC: JobTyp=21 DoJE=F Cont=F.
 Enter PrismC: JobTyp=21 DoJE=F Cont=F.
 Enter PrismC: JobTyp=21 DoJE=F Cont=F.
 Enter PrismC: JobTyp=21 DoJE=F Cont=F.
 Enter PrismC: JobTyp=21 DoJE=F Cont=F.
 Enter PrismC: JobTyp=21 DoJE=F Cont=F.
 Enter PrismC: JobTyp=21 DoJE=F Cont=F.
 Enter PrismC: JobTyp=21 DoJE=F Cont=F.
 Enter PrismC: JobTyp=21 DoJE=F Cont=F.
 PrismC was handed    13045396 working-precision words and  3385 shell-pairs
 Enter PrismC: JobTyp=21 DoJE=F Cont=F.
 PrismC was handed    13045396 working-precision words and  3385 shell-pairs
 Enter PrismC: JobTyp=21 DoJE=F Cont=F.
 Enter PrismC: JobTyp=21 DoJE=F Cont=F.
 Enter PrismC: JobTyp=21 DoJE=F Cont=F.
 PrismC was handed    13045396 working-precision words and  3385 shell-pairs
 Enter PrismC: JobTyp=21 DoJE=F Cont=F.
 PrismC was handed    13045396 working-precision words and  3385 shell-pairs
 Enter PrismC: JobTyp=21 DoJE=F Cont=F.
 PrismC was handed    13045396 working-precision words and  3385 shell-pairs
 Enter PrismC: JobTyp=21 DoJE=F Cont=F.
 PrismC was handed    13045396 working-precision words and  3385 shell-pairs
 Enter PrismC: JobTyp=21 DoJE=F Cont=F.
 PrismC was handed    13045396 working-precision words and  3385 shell-pairs
 Enter PrismC: JobTyp=21 DoJE=F Cont=F.
 PrismC was handed    13045396 working-precision words and  3385 shell-pairs
 Enter PrismC: JobTyp=21 DoJE=F Cont=F.
 PrismC was handed    13045396 working-precision words and  3385 shell-pairs
 Enter PrismC: JobTyp=21 DoJE=F Cont=F.
 PrismC was handed    13045396 working-precision words and  3385 shell-pairs
 PrismC was handed    13045396 working-precision words and  3385 shell-pairs
 PrismC was handed    13045396 working-precision words and  3385 shell-pairs
 PrismC was handed    13045396 working-precision words and  3385 shell-pairs
 PrismC was handed    13045396 working-precision words and  3385 shell-pairs
 PrismC was handed    13045396 working-precision words and  3385 shell-pairs
 PrismC was handed    13045396 working-precision words and  3385 shell-pairs
 PrismC was handed    13045396 working-precision words and  3385 shell-pairs
 PrismC was handed    13045396 working-precision words and  3385 shell-pairs
 PrismC was handed    13045396 working-precision words and  3385 shell-pairs
 PrismC was handed    13045396 working-precision words and  3385 shell-pairs
 PrismC was handed    13045396 working-precision words and  3385 shell-pairs
 PrismC was handed    13045396 working-precision words and  3385 shell-pairs
 PrismC was handed    13045396 working-precision words and  3385 shell-pairs
 PrismC was handed    13045396 working-precision words and  3385 shell-pairs
 PrismC was handed    13045396 working-precision words and  3385 shell-pairs
 PrismC was handed    13045396 working-precision words and  3385 shell-pairs
 PrismC was handed    13045396 working-precision words and  3385 shell-pairs
 PrismC was handed    13045396 working-precision words and  3385 shell-pairs
 PrismC was handed    13045396 working-precision words and  3385 shell-pairs
 PrismC was handed    13045396 working-precision words and  3385 shell-pairs
 PrismC was handed    13045396 working-precision words and  3385 shell-pairs
 IPart=  8 NShTot=      161771 NShNF=      161771 NShFF=           0 NBatch=        1384 AvBLen=       116.9
 IPart= 27 NShTot=      154722 NShNF=      154722 NShFF=           0 NBatch=        1404 AvBLen=       110.2
 IPart= 29 NShTot=      161363 NShNF=      161363 NShFF=           0 NBatch=        1431 AvBLen=       112.8
 IPart= 17 NShTot=      173389 NShNF=      173389 NShFF=           0 NBatch=        1450 AvBLen=       119.6
 IPart= 15 NShTot=      171968 NShNF=      171968 NShFF=           0 NBatch=        1388 AvBLen=       123.9
 IPart= 28 NShTot=      165516 NShNF=      165516 NShFF=           0 NBatch=        1403 AvBLen=       118.0
 IPart= 14 NShTot=      160830 NShNF=      160830 NShFF=           0 NBatch=        1396 AvBLen=       115.2
 IPart= 12 NShTot=      164904 NShNF=      164904 NShFF=           0 NBatch=        1423 AvBLen=       115.9
 IPart=  2 NShTot=      147599 NShNF=      147599 NShFF=           0 NBatch=        1406 AvBLen=       105.0
 IPart= 13 NShTot=      165558 NShNF=      165558 NShFF=           0 NBatch=        1330 AvBLen=       124.5
 IPart= 11 NShTot=      170634 NShNF=      170634 NShFF=           0 NBatch=        1192 AvBLen=       143.1
 IPart=  5 NShTot=      153032 NShNF=      153032 NShFF=           0 NBatch=        1240 AvBLen=       123.4
 IPart= 21 NShTot=      165375 NShNF=      165375 NShFF=           0 NBatch=        1416 AvBLen=       116.8
 IPart= 31 NShTot=      162513 NShNF=      162513 NShFF=           0 NBatch=        1422 AvBLen=       114.3
 IPart= 23 NShTot=      153613 NShNF=      153613 NShFF=           0 NBatch=        1403 AvBLen=       109.5
 IPart= 24 NShTot=      158951 NShNF=      158951 NShFF=           0 NBatch=        1192 AvBLen=       133.3
 IPart= 18 NShTot=      132963 NShNF=      132963 NShFF=           0 NBatch=        1385 AvBLen=        96.0
 IPart=  4 NShTot=      145548 NShNF=      145548 NShFF=           0 NBatch=        1421 AvBLen=       102.4
 IPart= 22 NShTot=      163363 NShNF=      163363 NShFF=           0 NBatch=        1211 AvBLen=       134.9
 IPart= 30 NShTot=      152223 NShNF=      152223 NShFF=           0 NBatch=        1408 AvBLen=       108.1
 IPart= 26 NShTot=      173748 NShNF=      173748 NShFF=           0 NBatch=        1405 AvBLen=       123.7
 IPart= 20 NShTot=      144641 NShNF=      144641 NShFF=           0 NBatch=        1393 AvBLen=       103.8
 IPart=  9 NShTot=      157049 NShNF=      157049 NShFF=           0 NBatch=        1385 AvBLen=       113.4
 IPart= 10 NShTot=      167033 NShNF=      167033 NShFF=           0 NBatch=        1395 AvBLen=       119.7
 IPart= 19 NShTot=      160303 NShNF=      160303 NShFF=           0 NBatch=        1314 AvBLen=       122.0
 IPart=  1 NShTot=      157528 NShNF=      157528 NShFF=           0 NBatch=        1352 AvBLen=       116.5
 IPart= 16 NShTot=      155047 NShNF=      155047 NShFF=           0 NBatch=        1400 AvBLen=       110.7
 IPart=  3 NShTot=      170729 NShNF=      170729 NShFF=           0 NBatch=        1205 AvBLen=       141.7
 IPart=  7 NShTot=      148069 NShNF=      148069 NShFF=           0 NBatch=        1428 AvBLen=       103.7
 IPart= 25 NShTot=      160091 NShNF=      160091 NShFF=           0 NBatch=        1393 AvBLen=       114.9
 IPart=  0 NShTot=      142013 NShNF=      142013 NShFF=           0 NBatch=        1087 AvBLen=       130.6
 IPart=  6 NShTot=      159462 NShNF=      159462 NShFF=           0 NBatch=        1388 AvBLen=       114.9
 CoulSu:  NxtVal=        6302721.
 FoFCou: FMM=F IPFlag=           0 FMFlag=      100000 FMFlg1=         800
         NFxFlg=           0 DoJE=F BraDBF=F KetDBF=F FulRan=T
         wScrn=  0.000000 ICntrl=    2127 IOpCl=  1 I1Cent=           0 NGrid=           0
         NMat0=    1 NMatS0=      0 NMatT0=    1 NMatD0=    1 NMtDS0=    0 NMtDT0=    0
         CW=    0.222036    0.777964
         WU=    0.000000   12.500000
 Symmetry not used in FoFCou.
 FoFCou:  KetSym=F NOpSet=  1 NOpAb=1 NOp=  1.
 FoFCou:  CnvScl= 1.00D+00 Thresh= 1.00D-10 IAcrcy=      10.
 PrismS was handed   419078569 working-precision words and  3385 shell-pairs
 FoFCou: LinMIO=F DoNuc=F BraDBF=F KetDBF=F HaveP=T PDBF=F HaveZ=T HaveW=F
         NIJTC =      10 NIJTAt=       0 NIJTCD=       0 NIJTT =      10
         IJTBeg=       1 IJTEnd=      10 KLTBeg=       1 KLTEnd=      10
         IPTBeg=       1 IPTEnd=      10 IPTBCv=       1 IPTECv=      10
         IZTBeg=       1 IZTEnd=      10 IZTBCv=       1 IZTECv=      10
         IWTBeg=      11 IWTEnd=      10 IWTBCv=      11 IWTECv=      10
         INTBeg=       1 INTEnd=       0 IFTBCv=       1 IFTECv=      10
 NCel replicated for PrismC:     1
 CoulSu:  IncDef=  1024 NBBP=        5730805 NTPThr=   100 NPartT=   32 Incr=        1024 LDynOK=F.
 CoulSu:  NPrtUS=  32 ThrOK=T IAlg=1 NPAlg=1 LenDen=           0 LWGrdD=           0 DoCopy=F.
 Enter PrismC: JobTyp=21 DoJE=F Cont=F.
 Linear combination for Coulomb/exchange, wScrn=  0.000000
 CW=    0.222036    0.777964
 WU=    0.000000   12.500000
 PrismC:  IPart=     0 DynPar=T LinDyn=F Incr=        1024 UseFst=F UseS4=T IGathr=2.
 PrismC was handed    13045292 working-precision words and  3385 shell-pairs
 Enter PrismC: JobTyp=21 DoJE=F Cont=F.
 Enter PrismC: JobTyp=21 DoJE=F Cont=F.
 Enter PrismC: JobTyp=21 DoJE=F Cont=F.
 Enter PrismC: JobTyp=21 DoJE=F Cont=F.
 Linear combination for Coulomb/exchange, wScrn=  0.000000
 CW=    0.222036    0.777964
 WU=    0.000000   12.500000
 Enter PrismC: JobTyp=21 DoJE=F Cont=F.
 Linear combination for Coulomb/exchange, wScrn=  0.000000
 CW=    0.222036    0.777964
 WU=    0.000000   12.500000
 Enter PrismC: JobTyp=21 DoJE=F Cont=F.
 Linear combination for Coulomb/exchange, wScrn=  0.000000
 CW=    0.222036    0.777964
 WU=    0.000000   12.500000
 Enter PrismC: JobTyp=21 DoJE=F Cont=F.
 Linear combination for Coulomb/exchange, wScrn=  0.000000
 CW=    0.222036    0.777964
 WU=    0.000000   12.500000
 Enter PrismC: JobTyp=21 DoJE=F Cont=F.
 Linear combination for Coulomb/exchange, wScrn=  0.000000
 CW=    0.222036    0.777964
 WU=    0.000000   12.500000
 PrismC was handed    13045292 working-precision words and  3385 shell-pairs
 Enter PrismC: JobTyp=21 DoJE=F Cont=F.
 Enter PrismC: JobTyp=21 DoJE=F Cont=F.
 Linear combination for Coulomb/exchange, wScrn=  0.000000
 CW=    0.222036    0.777964
 WU=    0.000000   12.500000
 PrismC was handed    13045292 working-precision words and  3385 shell-pairs
 Enter PrismC: JobTyp=21 DoJE=F Cont=F.
 Linear combination for Coulomb/exchange, wScrn=  0.000000
 CW=    0.222036    0.777964
 WU=    0.000000   12.500000
 Enter PrismC: JobTyp=21 DoJE=F Cont=F.
 Linear combination for Coulomb/exchange, wScrn=  0.000000
 CW=    0.222036    0.777964
 WU=    0.000000   12.500000
 PrismC was handed    13045292 working-precision words and  3385 shell-pairs
 Enter PrismC: JobTyp=21 DoJE=F Cont=F.
 Linear combination for Coulomb/exchange, wScrn=  0.000000
 CW=    0.222036    0.777964
 WU=    0.000000   12.500000
 Enter PrismC: JobTyp=21 DoJE=F Cont=F.
 Linear combination for Coulomb/exchange, wScrn=  0.000000
 CW=    0.222036    0.777964
 WU=    0.000000   12.500000
 Enter PrismC: JobTyp=21 DoJE=F Cont=F.
 Linear combination for Coulomb/exchange, wScrn=  0.000000
 CW=    0.222036    0.777964
 WU=    0.000000   12.500000
 Enter PrismC: JobTyp=21 DoJE=F Cont=F.
 Linear combination for Coulomb/exchange, wScrn=  0.000000
 CW=    0.222036    0.777964
 WU=    0.000000   12.500000
 Enter PrismC: JobTyp=21 DoJE=F Cont=F.
 Linear combination for Coulomb/exchange, wScrn=  0.000000
 CW=    0.222036    0.777964
 WU=    0.000000   12.500000
 Enter PrismC: JobTyp=21 DoJE=F Cont=F.
 Linear combination for Coulomb/exchange, wScrn=  0.000000
 CW=    0.222036    0.777964
 WU=    0.000000   12.500000
 Enter PrismC: JobTyp=21 DoJE=F Cont=F.
 Linear combination for Coulomb/exchange, wScrn=  0.000000
 CW=    0.222036    0.777964
 WU=    0.000000   12.500000
 Enter PrismC: JobTyp=21 DoJE=F Cont=F.
 Linear combination for Coulomb/exchange, wScrn=  0.000000
 CW=    0.222036    0.777964
 WU=    0.000000   12.500000
 Linear combination for Coulomb/exchange, wScrn=  0.000000
 CW=    0.222036    0.777964
 WU=    0.000000   12.500000
 PrismC was handed    13045292 working-precision words and  3385 shell-pairs
 Enter PrismC: JobTyp=21 DoJE=F Cont=F.
 Linear combination for Coulomb/exchange, wScrn=  0.000000
 CW=    0.222036    0.777964
 WU=    0.000000   12.500000
 Enter PrismC: JobTyp=21 DoJE=F Cont=F.
 Linear combination for Coulomb/exchange, wScrn=  0.000000
 CW=    0.222036    0.777964
 Linear combination for Coulomb/exchange, wScrn=  0.000000
 CW=    0.222036    0.777964
 WU=    0.000000   12.500000
 Enter PrismC: JobTyp=21 DoJE=F Cont=F.
 Linear combination for Coulomb/exchange, wScrn=  0.000000
 CW=    0.222036    0.777964
 WU=    0.000000   12.500000
 PrismC was handed    13045292 working-precision words and  3385 shell-pairs
 PrismC was handed    13045292 working-precision words and  3385 shell-pairs
 Enter PrismC: JobTyp=21 DoJE=F Cont=F.
 Linear combination for Coulomb/exchange, wScrn=  0.000000
 CW=    0.222036    0.777964
 WU=    0.000000   12.500000
 Enter PrismC: JobTyp=21 DoJE=F Cont=F.
 Linear combination for Coulomb/exchange, wScrn=  0.000000
 CW=    0.222036    0.777964
 WU=    0.000000   12.500000
 Enter PrismC: JobTyp=21 DoJE=F Cont=F.
 Linear combination for Coulomb/exchange, wScrn=  0.000000
 CW=    0.222036    0.777964
 WU=    0.000000   12.500000
 PrismC was handed    13045292 working-precision words and  3385 shell-pairs
 PrismC was handed    13045292 working-precision words and  3385 shell-pairs
 PrismC was handed    13045292 working-precision words and  3385 shell-pairs
 Enter PrismC: JobTyp=21 DoJE=F Cont=F.
 Linear combination for Coulomb/exchange, wScrn=  0.000000
 CW=    0.222036    0.777964
 WU=    0.000000   12.500000
 Enter PrismC: JobTyp=21 DoJE=F Cont=F.
 Linear combination for Coulomb/exchange, wScrn=  0.000000
 CW=    0.222036    0.777964
 WU=    0.000000   12.500000
 Linear combination for Coulomb/exchange, wScrn=  0.000000
 CW=    0.222036    0.777964
 WU=    0.000000   12.500000
 PrismC was handed    13045292 working-precision words and  3385 shell-pairs
 PrismC was handed    13045292 working-precision words and  3385 shell-pairs
 PrismC was handed    13045292 working-precision words and  3385 shell-pairs
 PrismC was handed    13045292 working-precision words and  3385 shell-pairs
 PrismC was handed    13045292 working-precision words and  3385 shell-pairs
 PrismC was handed    13045292 working-precision words and  3385 shell-pairs
 PrismC was handed    13045292 working-precision words and  3385 shell-pairs
 PrismC was handed    13045292 working-precision words and  3385 shell-pairs
 PrismC was handed    13045292 working-precision words and  3385 shell-pairs
 Enter PrismC: JobTyp=21 DoJE=F Cont=F.
 Linear combination for Coulomb/exchange, wScrn=  0.000000
 CW=    0.222036    0.777964
 WU=    0.000000   12.500000
 Enter PrismC: JobTyp=21 DoJE=F Cont=F.
 Linear combination for Coulomb/exchange, wScrn=  0.000000
 CW=    0.222036    0.777964
 PrismC was handed    13045292 working-precision words and  3385 shell-pairs
 Enter PrismC: JobTyp=21 DoJE=F Cont=F.
 Linear combination for Coulomb/exchange, wScrn=  0.000000
 CW=    0.222036    0.777964
 WU=    0.000000   12.500000
 PrismC was handed    13045292 working-precision words and  3385 shell-pairs
 PrismC was handed    13045292 working-precision words and  3385 shell-pairs
 WU=    0.000000   12.500000
 PrismC was handed    13045292 working-precision words and  3385 shell-pairs
 PrismC was handed    13045292 working-precision words and  3385 shell-pairs
 PrismC was handed    13045292 working-precision words and  3385 shell-pairs
 WU=    0.000000   12.500000
 PrismC was handed    13045292 working-precision words and  3385 shell-pairs
 PrismC was handed    13045292 working-precision words and  3385 shell-pairs
 PrismC was handed    13045292 working-precision words and  3385 shell-pairs
 Linear combination for Coulomb/exchange, wScrn=  0.000000
 CW=    0.222036    0.777964
 WU=    0.000000   12.500000
 PrismC was handed    13045292 working-precision words and  3385 shell-pairs
 PrismC was handed    13045292 working-precision words and  3385 shell-pairs
 PrismC was handed    13045292 working-precision words and  3385 shell-pairs
 PrismC was handed    13045292 working-precision words and  3385 shell-pairs
 IPart= 11 NShTot=      161114 NShNF=      161114 NShFF=           0 NBatch=        1672 AvBLen=        96.4
 IPart=  0 NShTot=      162745 NShNF=      162745 NShFF=           0 NBatch=        1406 AvBLen=       115.8
 IPart=  9 NShTot=      163834 NShNF=      163834 NShFF=           0 NBatch=        1735 AvBLen=        94.4
 IPart=  1 NShTot=      164991 NShNF=      164991 NShFF=           0 NBatch=        1804 AvBLen=        91.5
 IPart= 19 NShTot=      158236 NShNF=      158236 NShFF=           0 NBatch=        1651 AvBLen=        95.8
 IPart=  5 NShTot=      161681 NShNF=      161681 NShFF=           0 NBatch=        1711 AvBLen=        94.5
 IPart= 26 NShTot=      165897 NShNF=      165897 NShFF=           0 NBatch=        1722 AvBLen=        96.3
 IPart= 25 NShTot=      171619 NShNF=      171619 NShFF=           0 NBatch=        1776 AvBLen=        96.6
 IPart= 24 NShTot=      164543 NShNF=      164543 NShFF=           0 NBatch=        1768 AvBLen=        93.1
 IPart= 20 NShTot=      152006 NShNF=      152006 NShFF=           0 NBatch=        1743 AvBLen=        87.2
 IPart= 30 NShTot=      159650 NShNF=      159650 NShFF=           0 NBatch=        1723 AvBLen=        92.7
 IPart= 31 NShTot=      169504 NShNF=      169504 NShFF=           0 NBatch=        1656 AvBLen=       102.4
 IPart= 21 NShTot=      162974 NShNF=      162974 NShFF=           0 NBatch=        1593 AvBLen=       102.3
 IPart= 18 NShTot=      153592 NShNF=      153592 NShFF=           0 NBatch=        1732 AvBLen=        88.7
 IPart=  4 NShTot=      156322 NShNF=      156322 NShFF=           0 NBatch=        1706 AvBLen=        91.6
 IPart= 12 NShTot=      157602 NShNF=      157602 NShFF=           0 NBatch=        1773 AvBLen=        88.9
 IPart= 10 NShTot=      155178 NShNF=      155178 NShFF=           0 NBatch=        1645 AvBLen=        94.3
 IPart= 17 NShTot=      152474 NShNF=      152474 NShFF=           0 NBatch=        1683 AvBLen=        90.6
 IPart= 22 NShTot=      162673 NShNF=      162673 NShFF=           0 NBatch=        1686 AvBLen=        96.5
 IPart=  6 NShTot=      155757 NShNF=      155757 NShFF=           0 NBatch=        1664 AvBLen=        93.6
 IPart=  3 NShTot=      168571 NShNF=      168571 NShFF=           0 NBatch=        1714 AvBLen=        98.3
 IPart= 28 NShTot=      168522 NShNF=      168522 NShFF=           0 NBatch=        1760 AvBLen=        95.8
 IPart= 13 NShTot=      169532 NShNF=      169532 NShFF=           0 NBatch=        1757 AvBLen=        96.5
 IPart= 16 NShTot=      156285 NShNF=      156285 NShFF=           0 NBatch=        1663 AvBLen=        94.0
 IPart= 14 NShTot=      159998 NShNF=      159998 NShFF=           0 NBatch=        1690 AvBLen=        94.7
 IPart=  7 NShTot=      161106 NShNF=      161106 NShFF=           0 NBatch=        1721 AvBLen=        93.6
 IPart= 15 NShTot=      148995 NShNF=      148995 NShFF=           0 NBatch=        1593 AvBLen=        93.5
 IPart= 27 NShTot=      149833 NShNF=      149833 NShFF=           0 NBatch=        1670 AvBLen=        89.7
 IPart=  8 NShTot=      167439 NShNF=      167439 NShFF=           0 NBatch=        1543 AvBLen=       108.5
 IPart= 23 NShTot=      147099 NShNF=      147099 NShFF=           0 NBatch=        1720 AvBLen=        85.5
 IPart=  2 NShTot=      170029 NShNF=      170029 NShFF=           0 NBatch=        1727 AvBLen=        98.5
 IPart= 29 NShTot=      141469 NShNF=      141469 NShFF=           0 NBatch=        1671 AvBLen=        84.7
 CoulSu:  NxtVal=        6302721.
 ReadGW:  IGet=0 IStart=           1 Next=           1 LGW=           0.
 Remaining memory in FofDFT      399.87 Mw
 CkSvGd:  ISavGI=        -1 IRadAn=       5 IRASav=       5 ISavGd=        -1.
 CalDSu:  NPrtUS=  32 ThrOK=T IAlg=1 NPAlg=2 DoDPD=T LenP=       33930 LenD1P=             0.
 IPart=  0 IRanGd=          0 ScrnBf=T ScrnGd=T RCrit=4.00D+00 DoMicB=T.
 IPart= 23         5493 of         6052 points in       7 batches and       24 microbatches, Max-NSigAt=       8 Max-NSgAt2=       8
 IPart= 14         4477 of         4762 points in       5 batches and       29 microbatches, Max-NSigAt=       8 Max-NSgAt2=       8
 IPart= 29         5162 of         5678 points in       6 batches and       23 microbatches, Max-NSigAt=       8 Max-NSgAt2=       8
 IPart= 19         5171 of         5956 points in       7 batches and       32 microbatches, Max-NSigAt=       8 Max-NSgAt2=       8
 IPart=  9         5184 of         5558 points in       5 batches and       15 microbatches, Max-NSigAt=       8 Max-NSgAt2=       8
 IPart= 31         4646 of         4904 points in       5 batches and       23 microbatches, Max-NSigAt=       8 Max-NSgAt2=       8
 IPart= 11         5974 of         7300 points in       9 batches and       36 microbatches, Max-NSigAt=       8 Max-NSgAt2=       8
 IPart= 24         4654 of         4748 points in       4 batches and       13 microbatches, Max-NSigAt=       8 Max-NSgAt2=       8
 IPart= 25         6014 of         7126 points in       9 batches and       47 microbatches, Max-NSigAt=       8 Max-NSgAt2=       8
 IPart= 21         4743 of         5352 points in       6 batches and       52 microbatches, Max-NSigAt=       8 Max-NSgAt2=       8
 IPart=  4         4519 of         4920 points in       5 batches and       31 microbatches, Max-NSigAt=       8 Max-NSgAt2=       8
 IPart=  0         4703 of         4772 points in       4 batches and       14 microbatches, Max-NSigAt=       8 Max-NSgAt2=       8
 IPart=  1         5234 of         5722 points in       6 batches and       27 microbatches, Max-NSigAt=       8 Max-NSgAt2=       8
 IPart= 28         4638 of         4926 points in       5 batches and       35 microbatches, Max-NSigAt=       8 Max-NSgAt2=       8
 IPart= 16         5152 of         6068 points in       9 batches and       48 microbatches, Max-NSigAt=       8 Max-NSgAt2=       8
 IPart= 27         5264 of         5718 points in       7 batches and       31 microbatches, Max-NSigAt=       8 Max-NSgAt2=       8
 IPart=  5         5833 of         6628 points in       8 batches and       42 microbatches, Max-NSigAt=       8 Max-NSgAt2=       8
 IPart=  3         5496 of         6298 points in       7 batches and       30 microbatches, Max-NSigAt=       8 Max-NSgAt2=       8
 IPart= 22         4998 of         5420 points in       6 batches and       25 microbatches, Max-NSigAt=       8 Max-NSgAt2=       8
 IPart= 20         4326 of         4748 points in       5 batches and       35 microbatches, Max-NSigAt=       8 Max-NSgAt2=       8
 IPart= 15         5408 of         6196 points in       8 batches and       37 microbatches, Max-NSigAt=       8 Max-NSgAt2=       8
 IPart= 17         5106 of         5352 points in       5 batches and       28 microbatches, Max-NSigAt=       8 Max-NSgAt2=       8
 IPart=  8         5009 of         5580 points in       7 batches and       48 microbatches, Max-NSigAt=       8 Max-NSgAt2=       8
 IPart=  2         5155 of         5352 points in       5 batches and       26 microbatches, Max-NSigAt=       8 Max-NSgAt2=       8
 IPart= 13         4763 of         5380 points in       7 batches and       56 microbatches, Max-NSigAt=       8 Max-NSgAt2=       8
 IPart=  6         6087 of         6904 points in       8 batches and       25 microbatches, Max-NSigAt=       8 Max-NSgAt2=       8
 IPart= 26         5385 of         5520 points in       5 batches and       17 microbatches, Max-NSigAt=       8 Max-NSgAt2=       8
 IPart=  7         5887 of         6470 points in       7 batches and       27 microbatches, Max-NSigAt=       8 Max-NSgAt2=       8
 IPart= 12         6174 of         6942 points in       8 batches and       22 microbatches, Max-NSigAt=       8 Max-NSgAt2=       8
 IPart= 18         6688 of         7642 points in       9 batches and       45 microbatches, Max-NSigAt=       8 Max-NSgAt2=       8
 IPart= 10         5378 of         5694 points in       6 batches and       36 microbatches, Max-NSigAt=       8 Max-NSgAt2=       8
 IPart= 30         5186 of         5524 points in       6 batches and       33 microbatches, Max-NSigAt=       8 Max-NSgAt2=       8
 Forces at end of L703
 I=    0 X=  -2.678671588751D-04 Y=  -1.669141569235D-03 Z=  -5.204307722382D-04
 I=    1 X=   5.357844163396D-04 Y=   8.633342388947D-03 Z=   1.393783475628D-04
 I=    2 X=   8.056280349402D-05 Y=  -6.482618751677D-04 Z=   1.006195384061D-04
 I=    3 X=   8.877441135580D-05 Y=  -5.788885711628D-04 Z=   2.513590531339D-05
 I=    4 X=  -1.315640831026D-04 Y=  -1.063798026344D-03 Z=  -9.704552665979D-05
 I=    5 X=  -7.223326622402D-04 Y=  -8.502045280727D-03 Z=  -4.354716043046D-04
 I=    6 X=  -1.443618057095D-06 Y=   5.286086094398D-04 Z=   1.388906692361D-04
 I=    7 X=   9.642279000399D-05 Y=   6.227664579656D-04 Z=   1.839208622245D-04
 I=    8 X=   5.379594220615D-05 Y=   1.008276297045D-03 Z=  -5.542819177018D-05
 FrcOut:
 IF    =    45 IFX   =    69 IFXYZ =    93
 IFFX  =   117 IFFFX =   417 IFLen =    24
 IFFLen=   300 IFFFLn=     0 IEDerv=   417
 LEDerv=  1205 IFroze=  1904 ICStrt=108261
 FCEst1:  Generated internal coordinate force constants:
                1             2             3             4             5 
      1  0.731984D+00
      2  0.460885D-02  0.227073D+00
      3 -0.106399D-02  0.276632D-02  0.733342D+00
      4 -0.117633D+00 -0.251240D-02  0.816356D-03  0.789836D-01
      5 -0.251503D-02 -0.714204D-01  0.131125D-01  0.246107D-02  0.492342D-01
      6  0.000000D+00  0.000000D+00 -0.362127D+00  0.000000D+00  0.000000D+00
      7 -0.300726D+00 -0.128576D-02  0.105609D+00  0.192751D-01 -0.149518D-04
      8  0.100710D-01 -0.713749D-01 -0.878138D-02 -0.299289D-04  0.108427D-01
      9  0.106469D+00 -0.222952D-02 -0.179001D+00  0.334230D-01 -0.259264D-04
     10 -0.300824D+00 -0.706224D-03 -0.105978D+00  0.193047D-01  0.408897D-04
     11 -0.120517D-01 -0.700949D-01 -0.703222D-02  0.533403D-04  0.108406D-01
     12 -0.106021D+00 -0.474923D-03 -0.178681D+00 -0.334090D-01 -0.133763D-03
     13 -0.135133D-01 -0.602120D-04  0.651205D-03  0.672760D-04  0.281447D-04
     14 -0.705390D-04 -0.141846D-01 -0.942371D-04  0.280349D-04  0.502871D-03
     15  0.651368D-03 -0.873335D-04 -0.129373D-01 -0.830241D-03 -0.129528D-01
     16 -0.330146D-03  0.126973D-04  0.217402D-03 -0.280085D-03  0.179581D-04
     17 -0.111520D-01  0.458240D-03  0.659062D-02  0.365142D-04 -0.234118D-05
     18 -0.621334D-03  0.240534D-04  0.405118D-03 -0.476253D-03  0.305358D-04
     19  0.107168D-02 -0.908052D-04  0.567024D-03 -0.271585D-03  0.174132D-04
     20  0.112215D-01 -0.965497D-03  0.631402D-02 -0.138396D-05  0.000000D+00
     21  0.598599D-03 -0.539952D-04  0.400768D-03  0.482440D-03 -0.309325D-04
     22 -0.303335D-04  0.338573D-04 -0.819050D-03  0.553488D-03 -0.354878D-04
     23 -0.112131D-03  0.508857D-03 -0.128756D-01 -0.352433D-04  0.225969D-05
     24 -0.121073D-04  0.553994D-04 -0.140194D-02 -0.627633D-05  0.000000D+00
                6             7             8             9            10 
      6  0.362127D+00
      7  0.000000D+00  0.291462D+00
      8  0.000000D+00  0.125974D-02  0.492263D-01
      9  0.000000D+00 -0.122532D+00  0.218438D-02  0.149656D+00
     10  0.000000D+00 -0.964434D-02 -0.953843D-04 -0.167233D-01  0.291215D+00
     11  0.000000D+00  0.265495D-04  0.108405D-01  0.460368D-04  0.756841D-03
     12  0.000000D+00  0.166903D-01  0.102073D-03  0.289410D-01  0.122716D+00
     13  0.000000D+00 -0.365848D-03 -0.112055D-01 -0.634380D-03 -0.508080D-04
     14  0.000000D+00  0.143737D-04  0.465404D-03  0.249240D-04  0.382072D-05
     15  0.000000D+00  0.233128D-03  0.649493D-02  0.404243D-03 -0.144517D-04
     16  0.000000D+00  0.139894D-03 -0.184210D-04  0.242576D-03  0.140736D-03
     17  0.000000D+00 -0.182378D-04  0.240152D-05 -0.316243D-04 -0.183476D-04
     18  0.000000D+00  0.237875D-03 -0.313229D-04  0.412475D-03  0.239307D-03
     19  0.000000D+00  0.135649D-03 -0.178620D-04  0.235215D-03  0.136466D-03
     20  0.000000D+00  0.000000D+00  0.000000D+00  0.119862D-05  0.000000D+00
     21  0.000000D+00 -0.240964D-03  0.317297D-04 -0.417832D-03 -0.242415D-03
     22  0.000000D+00 -0.276451D-03  0.364025D-04 -0.479366D-03 -0.278115D-03
     23  0.000000D+00  0.176030D-04 -0.231793D-05  0.305236D-04  0.177090D-04
     24  0.000000D+00  0.313484D-05  0.000000D+00  0.543582D-05  0.315372D-05
               11            12            13            14            15 
     11  0.493852D-01
     12  0.507677D-03  0.149753D+00
     13  0.112150D-01  0.227537D-04  0.731929D+00
     14 -0.971487D-03  0.000000D+00 -0.310677D-01  0.235912D+00
     15  0.647851D-02 -0.126391D-04 -0.375953D-02 -0.584644D-01  0.724707D+00
     16  0.000000D+00 -0.243561D-03 -0.298672D+00  0.332272D-02  0.107185D+00
     17  0.000000D+00  0.317526D-04  0.143779D-01 -0.726757D-01  0.702842D-03
     18  0.000000D+00 -0.414148D-03  0.108020D+00  0.720245D-02 -0.179791D+00
     19  0.000000D+00 -0.236170D-03 -0.302149D+00  0.249146D-01 -0.103520D+00
     20  0.000000D+00 -0.120349D-05  0.137129D-01 -0.738994D-01  0.137144D-01
     21  0.000000D+00  0.419528D-03 -0.103553D+00  0.200176D-01 -0.175059D+00
     22  0.000000D+00  0.481311D-03 -0.117246D+00  0.285469D-02  0.542010D-04
     23  0.000000D+00 -0.306474D-04  0.299953D-02 -0.751492D-01  0.441138D-01
     24  0.000000D+00 -0.545787D-05 -0.747274D-03  0.313146D-01 -0.357312D+00
               16            17            18            19            20 
     16  0.289155D+00
     17 -0.222086D-02  0.502691D-01
     18 -0.124143D+00 -0.544809D-02  0.150919D+00
     19 -0.957407D-02  0.310084D-02 -0.162697D-01  0.291535D+00
     20 -0.613300D-03  0.109915D-01 -0.984412D-03 -0.274025D-01  0.533553D-01
     21  0.168813D-01 -0.305959D-02  0.287002D-01  0.119364D+00 -0.201787D-01
     22  0.194199D-01 -0.410585D-02  0.330129D-01  0.191152D-01  0.308141D-02
     23 -0.501264D-03  0.109568D-01 -0.794015D-03 -0.522097D-03  0.105181D-01
     24 -0.139947D-03  0.121408D-02 -0.231560D-03 -0.140884D-03  0.113466D-02
               21            22            23            24 
     21  0.145452D+00
     22 -0.332902D-01  0.787425D-01
     23  0.327465D-02 -0.186411D-02  0.531655D-01
     24  0.503569D-03  0.104020D-02 -0.337187D-01  0.358441D+00
 Quadrupole    = 8.83965059D-01-1.75671478D+00 8.72749726D-01
                -7.35234639D-02-8.99243709D-03-1.43766324D-01
 -------------------------------------------------------------------
 Center     Atomic                   Forces (Hartrees/Bohr)
 Number     Number              X              Y              Z
 -------------------------------------------------------------------
      1        6          -0.000535784   -0.008633342   -0.000139378
      2        1          -0.000080563    0.000648262   -0.000100620
      3        1          -0.000088774    0.000578889   -0.000025136
      4        1           0.000131564    0.001063798    0.000097046
      5        6           0.000722333    0.008502045    0.000435472
      6        1           0.000001444   -0.000528609   -0.000138891
      7        1          -0.000096423   -0.000622766   -0.000183921
      8        1          -0.000053796   -0.001008276    0.000055428
 -------------------------------------------------------------------
 Cartesian Forces:  Max     0.008633342 RMS     0.002512704
 From PutF, contents of force:
   1   -0.6233881005D-03
   2   -0.3627455019D-04
   3   -0.5705824223D-03
   4   -0.8351121246D-03
   5   -0.3485606121D-03
   6    0.1875920951D-02
   7   -0.7019637378D-04
   8   -0.1054625961D-03
   9   -0.1642802606D-03
  10    0.1436626646D-03
  11    0.1174052765D-04
  12   -0.1760245602D-02
  13   -0.3344822985D-04
  14    0.1347282644D-03
  15   -0.1655595527D-03
  16   -0.6434514939D-04
  17   -0.1006195384D-03
  18   -0.6367820507D-02
 -----------------------------------------------------------------------------------------------
                       Internal Coordinate Forces (Hartree/Bohr or radian)
  Cent   Atom   N1       Length/X         N2         Alpha/Y        N3         Beta/Z          J
 -----------------------------------------------------------------------------------------------
      1  C 
      2  H        1  -0.000101(     1)
      3  H        1  -0.000064(     2)      2   0.000135(     8)
      4  H        1  -0.000166(     3)      2  -0.000033(     9)      3   0.001876(    14)     0
      5  C        1  -0.006368(     4)      2  -0.000349(    10)      3  -0.000835(    15)     0
      6  H        5  -0.000070(     5)      1  -0.000571(    11)      2  -0.000036(    16)     0
      7  H        5  -0.000105(     6)      6   0.000144(    12)      1  -0.000623(    17)     0
      8  H        5  -0.000164(     7)      6   0.000012(    13)      7  -0.001760(    18)     0
 -----------------------------------------------------------------------------------------------
 Internal  Forces:  Max     0.006367821 RMS     0.001646981
 Force constants in Cartesian coordinates: 
                1             2             3             4             5 
      1  0.731984D+00
      2  0.460885D-02  0.227073D+00
      3 -0.106399D-02  0.276632D-02  0.733342D+00
      4 -0.117633D+00 -0.251240D-02  0.816356D-03  0.789836D-01
      5 -0.251503D-02 -0.714204D-01  0.131125D-01  0.246107D-02  0.492342D-01
      6  0.000000D+00  0.000000D+00 -0.362127D+00  0.000000D+00  0.000000D+00
      7 -0.300726D+00 -0.128576D-02  0.105609D+00  0.192751D-01 -0.149518D-04
      8  0.100710D-01 -0.713749D-01 -0.878138D-02 -0.299289D-04  0.108427D-01
      9  0.106469D+00 -0.222952D-02 -0.179001D+00  0.334230D-01 -0.259264D-04
     10 -0.300824D+00 -0.706224D-03 -0.105978D+00  0.193047D-01  0.408897D-04
     11 -0.120517D-01 -0.700949D-01 -0.703222D-02  0.533403D-04  0.108406D-01
     12 -0.106021D+00 -0.474923D-03 -0.178681D+00 -0.334090D-01 -0.133763D-03
     13 -0.135133D-01 -0.602120D-04  0.651205D-03  0.672760D-04  0.281447D-04
     14 -0.705390D-04 -0.141846D-01 -0.942371D-04  0.280349D-04  0.502871D-03
     15  0.651368D-03 -0.873335D-04 -0.129373D-01 -0.830241D-03 -0.129528D-01
     16 -0.330146D-03  0.126973D-04  0.217402D-03 -0.280085D-03  0.179581D-04
     17 -0.111520D-01  0.458240D-03  0.659062D-02  0.365142D-04 -0.234118D-05
     18 -0.621334D-03  0.240534D-04  0.405118D-03 -0.476253D-03  0.305358D-04
     19  0.107168D-02 -0.908052D-04  0.567024D-03 -0.271585D-03  0.174132D-04
     20  0.112215D-01 -0.965497D-03  0.631402D-02 -0.138396D-05  0.000000D+00
     21  0.598599D-03 -0.539952D-04  0.400768D-03  0.482440D-03 -0.309325D-04
     22 -0.303335D-04  0.338573D-04 -0.819050D-03  0.553488D-03 -0.354878D-04
     23 -0.112131D-03  0.508857D-03 -0.128756D-01 -0.352433D-04  0.225969D-05
     24 -0.121073D-04  0.553994D-04 -0.140194D-02 -0.627633D-05  0.000000D+00
                6             7             8             9            10 
      6  0.362127D+00
      7  0.000000D+00  0.291462D+00
      8  0.000000D+00  0.125974D-02  0.492263D-01
      9  0.000000D+00 -0.122532D+00  0.218438D-02  0.149656D+00
     10  0.000000D+00 -0.964434D-02 -0.953843D-04 -0.167233D-01  0.291215D+00
     11  0.000000D+00  0.265495D-04  0.108405D-01  0.460368D-04  0.756841D-03
     12  0.000000D+00  0.166903D-01  0.102073D-03  0.289410D-01  0.122716D+00
     13  0.000000D+00 -0.365848D-03 -0.112055D-01 -0.634380D-03 -0.508080D-04
     14  0.000000D+00  0.143737D-04  0.465404D-03  0.249240D-04  0.382072D-05
     15  0.000000D+00  0.233128D-03  0.649493D-02  0.404243D-03 -0.144517D-04
     16  0.000000D+00  0.139894D-03 -0.184210D-04  0.242576D-03  0.140736D-03
     17  0.000000D+00 -0.182378D-04  0.240152D-05 -0.316243D-04 -0.183476D-04
     18  0.000000D+00  0.237875D-03 -0.313229D-04  0.412475D-03  0.239307D-03
     19  0.000000D+00  0.135649D-03 -0.178620D-04  0.235215D-03  0.136466D-03
     20  0.000000D+00  0.000000D+00  0.000000D+00  0.119862D-05  0.000000D+00
     21  0.000000D+00 -0.240964D-03  0.317297D-04 -0.417832D-03 -0.242415D-03
     22  0.000000D+00 -0.276451D-03  0.364025D-04 -0.479366D-03 -0.278115D-03
     23  0.000000D+00  0.176030D-04 -0.231793D-05  0.305236D-04  0.177090D-04
     24  0.000000D+00  0.313484D-05  0.000000D+00  0.543582D-05  0.315372D-05
               11            12            13            14            15 
     11  0.493852D-01
     12  0.507677D-03  0.149753D+00
     13  0.112150D-01  0.227537D-04  0.731929D+00
     14 -0.971487D-03  0.000000D+00 -0.310677D-01  0.235912D+00
     15  0.647851D-02 -0.126391D-04 -0.375953D-02 -0.584644D-01  0.724707D+00
     16  0.000000D+00 -0.243561D-03 -0.298672D+00  0.332272D-02  0.107185D+00
     17  0.000000D+00  0.317526D-04  0.143779D-01 -0.726757D-01  0.702842D-03
     18  0.000000D+00 -0.414148D-03  0.108020D+00  0.720245D-02 -0.179791D+00
     19  0.000000D+00 -0.236170D-03 -0.302149D+00  0.249146D-01 -0.103520D+00
     20  0.000000D+00 -0.120349D-05  0.137129D-01 -0.738994D-01  0.137144D-01
     21  0.000000D+00  0.419528D-03 -0.103553D+00  0.200176D-01 -0.175059D+00
     22  0.000000D+00  0.481311D-03 -0.117246D+00  0.285469D-02  0.542010D-04
     23  0.000000D+00 -0.306474D-04  0.299953D-02 -0.751492D-01  0.441138D-01
     24  0.000000D+00 -0.545787D-05 -0.747274D-03  0.313146D-01 -0.357312D+00
               16            17            18            19            20 
     16  0.289155D+00
     17 -0.222086D-02  0.502691D-01
[...]
      3      3  H        1   1.078200(     2)      2  119.972(     8)
      4      4  H        1   1.078200(     3)      2  120.021(     9)      3  179.808(    14)      0
      5      5  C        1   3.200000(     4)      2   90.474(    10)      3   89.786(    15)      0
      6      6  H        5   1.078200(     5)      1   89.594(    11)      2   59.419(    16)      0
      7      7  H        5   1.078200(     6)      6  119.972(    12)      1   90.471(    17)      0
      8      8  H        5   1.078200(     7)      6  120.021(    13)      7  179.808(    18)      0
 ---------------------------------------------------------------------------------------------------
                         Z-Matrix orientation:                         
 ---------------------------------------------------------------------
 Center     Atomic      Atomic             Coordinates (Angstroms)
 Number     Number       Type             X           Y           Z
 ---------------------------------------------------------------------
      1          6           0        0.000000    0.000000    0.000000
      2          1           0        0.000000    0.000000    1.078200
      3          1           0        0.934011    0.000000   -0.538645
      4          1           0       -0.933548   -0.003135   -0.539437
      5          6           0        0.011925   -3.199868   -0.026458
      6          1           0       -0.916292   -3.200218    0.522113
      7          1           0        0.950812   -3.212244    0.503498
      8          1           0        0.001368   -3.190284   -1.104564
 ---------------------------------------------------------------------
                    Distance matrix (angstroms):
                    1          2          3          4          5
     1  C    0.000000
     2  H    1.078200   0.000000
     3  H    1.078200   1.867235   0.000000
     4  H    1.078200   1.867692   1.867562   0.000000
     5  C    3.200000   3.385199   3.369234   3.372858   0.000000
     6  H    3.369508   3.374940   3.845806   3.368757   1.078200
     7  H    3.387634   3.398946   3.377108   3.864830   1.078200
     8  H    3.376089   3.865537   3.371647   3.369178   1.078200
                    6          7          8
     6  H    0.000000
     7  H    1.867235   0.000000
     8  H    1.867692   1.867562   0.000000
 Symmetry turned off by external request.
 Stoichiometry    C2H6
 Framework group  C1[X(C2H6)]
 Deg. of freedom    18
 Full point group                 C1      NOp   1
 Rotational constants (GHZ):     71.8959592      6.2830990      6.2830142

 **********************************************************************

            Population analysis using the SCF density.

 **********************************************************************

 Alpha  occ. eigenvalues --  -10.29565 -10.28507  -0.78383  -0.73997  -0.50727
 Alpha  occ. eigenvalues --   -0.50720  -0.49410  -0.49399  -0.31076
 Alpha virt. eigenvalues --    0.00697   0.03297   0.04666   0.04669   0.05536
 Alpha virt. eigenvalues --    0.06872   0.06882   0.11012   0.12182   0.12208
 Alpha virt. eigenvalues --    0.13105   0.14073   0.14082   0.15381   0.16161
 Alpha virt. eigenvalues --    0.19940   0.19953   0.21642   0.21655   0.23739
 Alpha virt. eigenvalues --    0.23756   0.28619   0.29589   0.31191   0.31220
 Alpha virt. eigenvalues --    0.31352   0.32150   0.35283   0.35328   0.35339
 Alpha virt. eigenvalues --    0.35377   0.35793   0.36097   0.37422   0.38666
 Alpha virt. eigenvalues --    0.38670   0.39444   0.40871   0.41128   0.41136
 Alpha virt. eigenvalues --    0.41803   0.41807   0.43491   0.43525   0.46558
 Alpha virt. eigenvalues --    0.47171   0.47208   0.48034   0.48042   0.53313
 Alpha virt. eigenvalues --    0.66627   0.70716   0.70776   0.71091   0.71427
 Alpha virt. eigenvalues --    0.71480   0.76178   0.76274   0.77113   0.77124
 Alpha virt. eigenvalues --    0.78713   0.79870   0.80354   0.81761   0.83439
 Alpha virt. eigenvalues --    0.83543   0.86589   0.86656   0.88446   0.90179
 Alpha virt. eigenvalues --    0.90220   0.90995   0.91616   0.95533   0.95589
 Alpha virt. eigenvalues --    0.97626   1.00514   1.01366   1.01395   1.01682
 Alpha virt. eigenvalues --    1.01719   1.04435   1.04458   1.08474   1.08571
 Alpha virt. eigenvalues --    1.08692   1.09428   1.10455   1.10488   1.12608
 Alpha virt. eigenvalues --    1.14705   1.14803   1.20692   1.20838   1.21015
 Alpha virt. eigenvalues --    1.21022   1.22934   1.29153   1.38372   1.38652
 Alpha virt. eigenvalues --    1.39146   1.39544   1.46462   1.50299   1.50368
 Alpha virt. eigenvalues --    1.50959   1.51758   1.51767   1.53015   1.53118
 Alpha virt. eigenvalues --    1.56230   1.56967   1.57194   1.61559   1.61784
 Alpha virt. eigenvalues --    1.61858   1.63683   1.69794   1.80496   1.80522
 Alpha virt. eigenvalues --    1.81383   1.81403   1.84333   1.89152   1.97989
 Alpha virt. eigenvalues --    1.98124   1.99141   1.99227   2.05698   2.07280
 Alpha virt. eigenvalues --    2.07384   2.07651   2.07718   2.09258   2.11386
 Alpha virt. eigenvalues --    2.73390   2.73577   2.82405   2.95476   2.95703
 Alpha virt. eigenvalues --    2.96844   2.99165   3.03446   3.04094   3.04225
 Alpha virt. eigenvalues --    3.11091   3.11599   3.35152   3.35235   3.36427
 Alpha virt. eigenvalues --    3.37206   3.37304   3.39060   3.39107   3.43236
 Alpha virt. eigenvalues --    3.43430   3.44206   3.46153   3.46448   3.47990
 Alpha virt. eigenvalues --    3.48095   3.50925   3.50995   3.61958   3.65712
 Alpha virt. eigenvalues --    3.67817   3.72185   3.74355   3.74361   3.76058
 Alpha virt. eigenvalues --    3.76077   3.76954   3.87362   4.03112   4.03286
 Alpha virt. eigenvalues --    4.04612   4.04746   4.15851   4.17424   4.17449
 Alpha virt. eigenvalues --    4.18907   4.18958   4.20174   4.45393   4.54821
 Alpha virt. eigenvalues --    4.55258   4.55422   4.61023   4.61082   4.61175
 Alpha virt. eigenvalues --    4.61210   4.64086   4.64381   4.74382   4.80043
 Alpha virt. eigenvalues --    4.83454   4.85693   5.05349   5.05397   5.05933
 Alpha virt. eigenvalues --    5.05980   5.11620   5.11660   5.14389   5.14425
 Alpha virt. eigenvalues --    5.18719   5.18782   5.19498   5.19526   5.29031
 Alpha virt. eigenvalues --    5.31387   6.06270   6.10290   6.23111   6.23244
 Alpha virt. eigenvalues --    6.26200   6.26221   6.40176   6.42834  15.99324
 Alpha virt. eigenvalues --   16.06852
  Beta  occ. eigenvalues --  -10.29562 -10.28509  -0.78380  -0.74000  -0.50724
  Beta  occ. eigenvalues --   -0.50717  -0.49412  -0.49402  -0.31073
  Beta virt. eigenvalues --    0.00694   0.03298   0.04666   0.04669   0.05535
  Beta virt. eigenvalues --    0.06873   0.06882   0.11010   0.12180   0.12205
  Beta virt. eigenvalues --    0.13106   0.14072   0.14081   0.15378   0.16156
  Beta virt. eigenvalues --    0.19940   0.19953   0.21642   0.21654   0.23737
  Beta virt. eigenvalues --    0.23754   0.28621   0.29585   0.31190   0.31219
  Beta virt. eigenvalues --    0.31355   0.32149   0.35278   0.35327   0.35342
  Beta virt. eigenvalues --    0.35382   0.35793   0.36098   0.37422   0.38664
  Beta virt. eigenvalues --    0.38668   0.39441   0.40870   0.41133   0.41141
  Beta virt. eigenvalues --    0.41799   0.41802   0.43491   0.43525   0.46557
  Beta virt. eigenvalues --    0.47167   0.47204   0.48035   0.48045   0.53312
  Beta virt. eigenvalues --    0.66627   0.70717   0.70778   0.71090   0.71425
  Beta virt. eigenvalues --    0.71479   0.76182   0.76277   0.77111   0.77121
  Beta virt. eigenvalues --    0.78748   0.79837   0.80354   0.81761   0.83426
  Beta virt. eigenvalues --    0.83534   0.86592   0.86665   0.88446   0.90179
  Beta virt. eigenvalues --    0.90220   0.90999   0.91610   0.95535   0.95590
  Beta virt. eigenvalues --    0.97626   1.00513   1.01371   1.01393   1.01683
  Beta virt. eigenvalues --    1.01714   1.04441   1.04465   1.08478   1.08574
  Beta virt. eigenvalues --    1.08658   1.09456   1.10442   1.10477   1.12608
  Beta virt. eigenvalues --    1.14704   1.14804   1.20691   1.20835   1.21018
  Beta virt. eigenvalues --    1.21026   1.22937   1.29152   1.38370   1.38646
  Beta virt. eigenvalues --    1.39150   1.39544   1.46463   1.50297   1.50366
  Beta virt. eigenvalues --    1.50959   1.51760   1.51769   1.53014   1.53120
  Beta virt. eigenvalues --    1.56211   1.56967   1.57193   1.61608   1.61785
  Beta virt. eigenvalues --    1.61859   1.63642   1.69806   1.80494   1.80515
  Beta virt. eigenvalues --    1.81384   1.81410   1.84326   1.89151   1.97974
  Beta virt. eigenvalues --    1.98122   1.99153   1.99233   2.05698   2.07281
  Beta virt. eigenvalues --    2.07370   2.07662   2.07721   2.09267   2.11377
  Beta virt. eigenvalues --    2.73388   2.73576   2.82408   2.95464   2.95684
  Beta virt. eigenvalues --    2.96804   2.99193   3.03445   3.04130   3.04266
  Beta virt. eigenvalues --    3.11070   3.11579   3.35146   3.35227   3.36444
  Beta virt. eigenvalues --    3.37218   3.37311   3.39048   3.39095   3.43246
  Beta virt. eigenvalues --    3.43428   3.44208   3.46177   3.46472   3.47967
  Beta virt. eigenvalues --    3.48070   3.50927   3.51004   3.61942   3.65703
  Beta virt. eigenvalues --    3.67817   3.72193   3.74355   3.74363   3.76056
  Beta virt. eigenvalues --    3.76076   3.76953   3.87362   4.03163   4.03327
  Beta virt. eigenvalues --    4.04564   4.04706   4.15855   4.17414   4.17425
  Beta virt. eigenvalues --    4.18926   4.18970   4.20171   4.45392   4.54820
  Beta virt. eigenvalues --    4.55255   4.55420   4.60987   4.61044   4.61219
  Beta virt. eigenvalues --    4.61257   4.64079   4.64376   4.74382   4.80047
  Beta virt. eigenvalues --    4.83452   4.85693   5.05361   5.05411   5.05924
  Beta virt. eigenvalues --    5.05967   5.11565   5.11601   5.14460   5.14500
  Beta virt. eigenvalues --    5.18748   5.18810   5.19451   5.19478   5.29029
  Beta virt. eigenvalues --    5.31389   6.06267   6.10293   6.23106   6.23240
  Beta virt. eigenvalues --    6.26206   6.26224   6.40176   6.42834  15.99325
  Beta virt. eigenvalues --   16.06851
          Condensed to atoms (all electrons):
               1          2          3          4          5          6
     1  C    6.056643   0.333948   0.333377   0.333344   0.037105  -0.001667
     2  H    0.333948   0.285589   0.010104   0.010045  -0.001426  -0.000465
     3  H    0.333377   0.010104   0.286124   0.010143  -0.001675  -0.000501
     4  H    0.333344   0.010045   0.010143   0.285995  -0.001524  -0.000486
     5  C    0.037105  -0.001426  -0.001675  -0.001524   6.056214   0.333465
     6  H   -0.001667  -0.000465  -0.000501  -0.000486   0.333465   0.286102
     7  H   -0.001399  -0.000441  -0.000461  -0.000473   0.334162   0.010091
     8  H   -0.001489  -0.000473  -0.000481  -0.000475   0.333514   0.010124
               7          8
     1  C   -0.001399  -0.001489
     2  H   -0.000441  -0.000473
     3  H   -0.000461  -0.000481
     4  H   -0.000473  -0.000475
     5  C    0.334162   0.333514
     6  H    0.010091   0.010124
     7  H    0.285487   0.010027
     8  H    0.010027   0.285820
          Atomic-Atomic Spin Densities.
               1          2          3          4          5          6
     1  C   -0.973606  -0.006591  -0.006512  -0.006358   0.000026   0.002996
     2  H   -0.006591   0.027824  -0.003130  -0.003139  -0.002806   0.000015
     3  H   -0.006512  -0.003130   0.027807  -0.003146  -0.003002   0.000000
     4  H   -0.006358  -0.003139  -0.003146   0.027836  -0.002895   0.000013
     5  C    0.000026  -0.002806  -0.003002  -0.002895   0.973439   0.006557
     6  H    0.002996   0.000015   0.000000   0.000013   0.006557  -0.027901
     7  H    0.002778  -0.000001  -0.000016  -0.000006   0.006654   0.003124
     8  H    0.002864   0.000004  -0.000014  -0.000001   0.006524   0.003132
               7          8
     1  C    0.002778   0.002864
     2  H   -0.000001   0.000004
     3  H   -0.000016  -0.000014
     4  H   -0.000006  -0.000001
     5  C    0.006654   0.006524
     6  H    0.003124   0.003132
     7  H   -0.027925   0.003124
     8  H    0.003124  -0.027866
 Mulliken charges and spin densities:
               1          2
     1  C   -1.089863  -0.984404
     2  H    0.363119   0.012178
     3  H    0.363370   0.011988
     4  H    0.363431   0.012304
     5  C   -1.089835   0.984498
     6  H    0.363338  -0.012063
     7  H    0.363007  -0.012268
     8  H    0.363434  -0.012233
 Sum of Mulliken charges =  -0.00000   0.00000
 Mulliken charges and spin densities with hydrogens summed into heavy atoms:
               1          2
     1  C    0.000056  -0.947933
     5  C   -0.000056   0.947933
 Electronic spatial extent (au):  <R**2>=            388.9628
 Charge=             -0.0000 electrons
 Dipole moment (field-independent basis, Debye):
    X=             -0.0000    Y=             -0.0043    Z=             -0.0001  Tot=              0.0043
 Quadrupole moment (field-independent basis, Debye-Ang):
   XX=            -14.4405   YY=            -18.0260   ZZ=            -14.4392
   XY=             -0.0099   XZ=              0.0005   YZ=             -0.0149
 Traceless Quadrupole moment (field-independent basis, Debye-Ang):
   XX=              1.1948   YY=             -2.3908   ZZ=              1.1960
   XY=             -0.0099   XZ=              0.0005   YZ=             -0.0149
 Octapole moment (field-independent basis, Debye-Ang**2):
  XXX=             -0.2323  YYY=             86.5298  ZZZ=              0.5713  XYY=             -0.0238
  XXY=             23.0957  XXZ=              0.1898  XZZ=             -0.1149  YZZ=             23.1120
  YYZ=              0.3543  XYZ=             -0.0061
 Hexadecapole moment (field-independent basis, Debye-Ang**3):
 XXXX=            -29.9195 YYYY=           -579.4076 ZZZZ=            -29.8470 XXXY=              0.7424
 XXXZ=              0.0385 YYYX=              0.6434 YYYZ=             -2.8335 ZZZX=             -0.0015
 ZZZY=              1.1220 XXYY=            -83.6051 XXZZ=            -10.0264 YYZZ=            -83.7185
 XXYZ=             -3.5566 YYXZ=              0.0364 ZZXY=              0.3647
 N-N= 3.231377896550D+01 E-N=-2.484222372368D+02  KE= 7.910347267723D+01
                          Isotropic Fermi Contact Couplings
        Atom                 a.u.       MegaHertz       Gauss      10(-4) cm-1
     1  C(13)             -0.00958      -5.38242      -1.92058      -1.79538
     2  H(1)               0.01363      30.46481      10.87060      10.16197
     3  H(1)               0.01366      30.53875      10.89699      10.18663
     4  H(1)               0.01365      30.51150      10.88726      10.17754
     5  C(13)              0.00964       5.42069       1.93424       1.80815
     6  H(1)              -0.01367     -30.54810     -10.90032     -10.18975
     7  H(1)              -0.01363     -30.46910     -10.87213     -10.16340
     8  H(1)              -0.01365     -30.49820     -10.88252     -10.17311
 --------------------------------------------------------
       Center         ----  Spin Dipole Couplings  ----
                      3XX-RR        3YY-RR        3ZZ-RR
 --------------------------------------------------------
     1   Atom        0.534963     -1.069947      0.534985
     2   Atom        0.069365      0.004320     -0.073686
     3   Atom       -0.038075      0.004533      0.033541
     4   Atom       -0.037887      0.004435      0.033452
     5   Atom       -0.534895      1.069759     -0.534864
     6   Atom        0.036752     -0.004531     -0.032221
     7   Atom        0.039111     -0.004358     -0.034752
     8   Atom       -0.069318     -0.004344      0.073662
 --------------------------------------------------------
                        XY            XZ            YZ
 --------------------------------------------------------
     1   Atom        0.002644     -0.000002      0.001602
     2   Atom        0.000074     -0.000028      0.003706
     3   Atom        0.003210      0.061943     -0.001650
     4   Atom       -0.003395     -0.062004     -0.001847
     5   Atom        0.010567      0.000121      0.015699
     6   Atom       -0.002642     -0.062686      0.002516
     7   Atom        0.002289      0.061297      0.001628
     8   Atom        0.000486      0.001439     -0.004328
 --------------------------------------------------------


 ---------------------------------------------------------------------------------
              Anisotropic Spin Dipole Couplings in Principal Axis System
 ---------------------------------------------------------------------------------

       Atom             a.u.   MegaHertz   Gauss  10(-4) cm-1        Axes

              Baa    -1.0700  -143.578   -51.232   -47.892 -0.0016  1.0000 -0.0010
     1 C(13)  Bbb     0.5350    71.787    25.616    23.946  0.9995  0.0016 -0.0329
              Bcc     0.5350    71.790    25.616    23.947  0.0329  0.0011  0.9995
 
              Baa    -0.0739   -39.409   -14.062   -13.145  0.0002 -0.0473  0.9989
     2 H(1)   Bbb     0.0045     2.399     0.856     0.800 -0.0011  0.9989  0.0473
              Bcc     0.0694    37.010    13.206    12.345  1.0000  0.0011 -0.0002
 
              Baa    -0.0740   -39.473   -14.085   -13.167  0.8653 -0.0459 -0.4992
     3 H(1)   Bbb     0.0047     2.507     0.894     0.836  0.0384  0.9989 -0.0253
              Bcc     0.0693    36.966    13.190    12.330  0.4998  0.0027  0.8661
 
              Baa    -0.0739   -39.451   -14.077   -13.159  0.8646  0.0492  0.5000
     4 H(1)   Bbb     0.0046     2.468     0.881     0.823 -0.0418  0.9988 -0.0260
              Bcc     0.0693    36.983    13.197    12.336 -0.5007  0.0016  0.8656
 
              Baa    -0.5350   -71.795   -25.618   -23.948 -0.2867 -0.0075  0.9580
     5 C(13)  Bbb    -0.5350   -71.786   -25.615   -23.945  0.9580 -0.0091  0.2866
              Bcc     1.0700   143.581    51.233    47.894  0.0066  0.9999  0.0098
 
              Baa    -0.0693   -36.970   -13.192   -12.332  0.5086 -0.0127  0.8609
     6 H(1)   Bbb    -0.0047    -2.498    -0.891    -0.833  0.0454  0.9989 -0.0121
              Bcc     0.0740    39.468    14.083    13.165  0.8598 -0.0452 -0.5086
 
              Baa    -0.0694   -37.021   -13.210   -12.349 -0.4918 -0.0045  0.8707
     7 H(1)   Bbb    -0.0045    -2.378    -0.849    -0.793 -0.0333  0.9994 -0.0137
              Bcc     0.0738    39.398    14.058    13.142  0.8701  0.0357  0.4916
 
              Baa    -0.0693   -36.995   -13.201   -12.340  0.9999 -0.0082 -0.0103
     8 H(1)   Bbb    -0.0046    -2.443    -0.872    -0.815  0.0087  0.9984  0.0551
              Bcc     0.0739    39.438    14.072    13.155  0.0098 -0.0552  0.9984
 

 ---------------------------------------------------------------------------------


 Test job not archived.
 1\1\GINC-NODE-6-11\POpt\UwB97XD\Aug-CC-pVTZ\C2H6\CAVALLOTTI\27-May-202
 3\1\\# uwb97xd/aug-cc-pvtz opt=(noeig,intern,maxcyc=50) # int=ultrafin
 e nosym iop(7/33=1) guess=(mix,always)\\geom 0\\0,1\C\H,1,R1\H,1,R2,2,
 A2\H,1,R3,2,A3,3,D3,0\C,1,RTS,2,AABS1,3,BABS1,0\H,5,R21,1,AABS2,2,BABS
 2,0\H,5,R22,6,A22,1,BABS3,0\H,5,R23,6,A23,7,D23,0\\BABS3=90.47068164\B
 ABS2=59.41904534\AABS2=89.59373268\BABS1=89.78648166\AABS1=90.47373313
 \D3=179.8076\R21=1.0782\R22=1.0782\R23=1.0782\A22=119.9721\A23=120.020
 7\D23=179.8076\A3=120.0207\A2=119.9721\R3=1.0782\R2=1.0782\R1=1.0782\R
 TS=3.2\\Version=EM64L-G09RevD.01\HF=-79.684673\S2=0.897359\S2-1=0.\S2A
 =0.046826\RMSD=3.176e-09\RMSF=2.516e-03\Dipole=-0.0000042,-0.0016914,-
 0.0000248\Quadrupole=0.8882709,-1.7774778,0.8892069,-0.0073632,0.00037
 73,-0.0110919\PG=C01 [X(C2H6)]\\@


 FLOATING POINT NUMBERS ARE LIKE SANDPILES:
 EVERY TIME THAT YOU MOVE ONE, YOU LOSE A LITTLE SAND 
 AND YOU PICK UP A LITTLE DIRT.
 Job cpu time:       0 days  0 hours 54 minutes  5.7 seconds.
 File lengths (MBytes):  RWF=    106 Int=      0 D2E=      0 Chk=      7 Scr=      1
 Normal termination of Gaussian 09 at Sat May 27 09:30:58 2023.
