 Entering Gaussian System, Link 0=g09
 Input=geom.com
 Output=geom.log
 Initial command:
 /software/cinetica/g09d1/g09d01/d01/build-node-6-2-59348/src/main/l1.exe "/scratch/cc/139123/Gau-44090.inp" -scrdir="/scratch/cc/139123/"
 Entering Link 1 = /software/cinetica/g09d1/g09d01/d01/build-node-6-2-59348/src/main/l1.exe PID=     44091.
  
 Copyright (c) 1988,1990,1992,1993,1995,1998,2003,2009,2013,
            Gaussian, Inc.  All Rights Reserved.
  
 This is part of the Gaussian(R) 09 program.  It is based on
 the Gaussian(R) 03 system (copyright 2003, Gaussian, Inc.),
 the Gaussian(R) 98 system (copyright 1998, Gaussian, Inc.),
 the Gaussian(R) 94 system (copyright 1995, Gaussian, Inc.),
 the Gaussian 92(TM) system (copyright 1992, Gaussian, Inc.),
 the Gaussian 90(TM) system (copyright 1990, Gaussian, Inc.),
 the Gaussian 88(TM) system (copyright 1988, Gaussian, Inc.),
 the Gaussian 86(TM) system (copyright 1986, Carnegie Mellon
 University), and the Gaussian 82(TM) system (copyright 1983,
 Carnegie Mellon University). Gaussian is a federally registered
 trademark of Gaussian, Inc.
  
 This software contains proprietary and confidential information,
 including trade secrets, belonging to Gaussian, Inc.
  
 This software is provided under written license and may be
 used, copied, transmitted, or stored only in accord with that
 written license.
  
 The following legend is applicable only to US Government
 contracts under FAR:
  
                    RESTRICTED RIGHTS LEGEND
  
 Use, reproduction and disclosure by the US Government is
 subject to restrictions as set forth in subparagraphs (a)
 and (c) of the Commercial Computer Software - Restricted
 Rights clause in FAR 52.227-19.
  
 Gaussian, Inc.
 340 Quinnipiac St., Bldg. 40, Wallingford CT 06492
  
  
 ---------------------------------------------------------------
 Warning -- This program may not be used in any manner that
 competes with the business of Gaussian, Inc. or will provide
 assistance to any competitor of Gaussian, Inc.  The licensee
 of this program is prohibited from giving any competitor of
 Gaussian, Inc. access to this program.  By using this program,
 the user acknowledges that Gaussian, Inc. is engaged in the
 business of creating and licensing software in the field of
 computational chemistry and represents and warrants to the
 licensee that it is not a competitor of Gaussian, Inc. and that
 it will not use this program in any manner prohibited above.
 ---------------------------------------------------------------
  

 Cite this work as:
 Gaussian 09, Revision D.01,
 M. J. Frisch, G. W. Trucks, H. B. Schlegel, G. E. Scuseria, 
 M. A. Robb, J. R. Cheeseman, G. Scalmani, V. Barone, B. Mennucci, 
 G. A. Petersson, H. Nakatsuji, M. Caricato, X. Li, H. P. Hratchian, 
 A. F. Izmaylov, J. Bloino, G. Zheng, J. L. Sonnenberg, M. Hada, 
 M. Ehara, K. Toyota, R. Fukuda, J. Hasegawa, M. Ishida, T. Nakajima, 
 Y. Honda, O. Kitao, H. Nakai, T. Vreven, J. A. Montgomery, Jr., 
 J. E. Peralta, F. Ogliaro, M. Bearpark, J. J. Heyd, E. Brothers, 
 K. N. Kudin, V. N. Staroverov, T. Keith, R. Kobayashi, J. Normand, 
 K. Raghavachari, A. Rendell, J. C. Burant, S. S. Iyengar, J. Tomasi, 
 M. Cossi, N. Rega, J. M. Millam, M. Klene, J. E. Knox, J. B. Cross, 
 V. Bakken, C. Adamo, J. Jaramillo, R. Gomperts, R. E. Stratmann, 
 O. Yazyev, A. J. Austin, R. Cammi, C. Pomelli, J. W. Ochterski, 
 R. L. Martin, K. Morokuma, V. G. Zakrzewski, G. A. Voth, 
 P. Salvador, J. J. Dannenberg, S. Dapprich, A. D. Daniels, 
 O. Farkas, J. B. Foresman, J. V. Ortiz, J. Cioslowski, 
 and D. J. Fox, Gaussian, Inc., Wallingford CT, 2013.
 
 ******************************************
 Gaussian 09:  EM64L-G09RevD.01 24-Apr-2013
                27-May-2023 
 ******************************************
 %mem=400MW
 %chk=tmp
 %NProcShared= 32
 Will use up to   32 processors via shared memory.
 ----------------------------------------------------------------------
 # uwb97xd/aug-cc-pvtz opt=(noeig,intern,maxcyc=50) # int=ultrafine nos
 ym freq iop(7/33=1) guess=(mix,always)
 ----------------------------------------------------------------------
 1/6=50,10=7,11=1,14=-1,18=40,26=4,38=1/1,3;
 2/12=2,15=1,17=6,18=5,29=3,40=1/2;
 3/5=16,6=1,7=10,11=2,16=1,25=1,30=1,71=1,74=-58,75=-5,116=2/1,2,3;
 4/13=-1/1;
 5/5=2,38=5/2;
 6/7=2,8=2,9=2,10=2,28=1/1;
 7/29=1,30=1,33=1/1,2,3,16;
 1/6=50,10=7,11=1,14=-1,18=40,26=4/3(2);
 2/15=1,29=3/2;
 99//99;
 2/15=1,29=3/2;
 3/5=16,6=1,7=10,11=2,16=1,25=1,30=1,71=1,74=-58,75=-5,116=2/1,2,3;
 4/13=-1/1;
 5/5=2,38=5/2;
 7/30=1,33=1/1,2,3,16;
 1/6=50,11=1,14=-1,18=40,26=4/3(-5);
 2/15=1,29=3/2;
 6/7=2,8=2,9=2,10=2,19=2,28=1/1;
 99/9=1/99;
 ------
 geom 0
 ------
 Symbolic Z-matrix:
 Charge =  0 Multiplicity = 1
 C1
 H2                   C1   R1
 H3                   C1   R2       H2   A2
 H4                   C1   R3       H2   A3       H3   D3       0
 C21                  C1   BB       H2   ANG1     H3   DH1      0
 H22                  C21  R21      C1   ANG2     H2   DH2      0
 H23                  C21  R22      H22  A22      C1   DH3      0
 H24                  C21  R23      H22  A23      H23  D23      0
       Variables:
  R1                    1.0834                   
  R2                    1.0835                   
  R3                    1.0835                   
  A2                  112.8034                   
  A3                  112.8036                   
  D3                  230.784                    
  R21                   1.0834                   
  R22                   1.0835                   
  R23                   1.0835                   
  A22                 112.8017                   
  A23                 112.8053                   
  D23                 129.2159                   
  ANG2                105.9023                   
  DH3                 115.383                    
  DH2                  60.0096                   
  DH1                 115.3954                   
  ANG1                105.8979                   
       Constants:
  BB                    3.2                      
 

 GradGradGradGradGradGradGradGradGradGradGradGradGradGradGradGradGradGrad
 Berny optimization.
 Initialization pass.
                       ----------------------------
                       !    Initial Parameters    !
                       ! (Angstroms and Degrees)  !
 ----------------------                            ----------------------
 !      Name          Value   Derivative information (Atomic Units)     !
 ------------------------------------------------------------------------
 !       R1          1.0834   estimate D2E/DX2                          !
 !       R2          1.0835   estimate D2E/DX2                          !
 !       R3          1.0835   estimate D2E/DX2                          !
 !       A2        112.8034   estimate D2E/DX2                          !
 !       A3        112.8036   estimate D2E/DX2                          !
 !       D3        230.784    estimate D2E/DX2                          !
 !       R21         1.0834   estimate D2E/DX2                          !
 !       R22         1.0835   estimate D2E/DX2                          !
 !       R23         1.0835   estimate D2E/DX2                          !
 !       A22       112.8017   estimate D2E/DX2                          !
 !       A23       112.8053   estimate D2E/DX2                          !
 !       D23       129.2159   estimate D2E/DX2                          !
 !      ANG2       105.9023   estimate D2E/DX2                          !
 !       DH3       115.383    estimate D2E/DX2                          !
 !       DH2        60.0096   estimate D2E/DX2                          !
 !       DH1       115.3954   estimate D2E/DX2                          !
 !      ANG1       105.8979   estimate D2E/DX2                          !
 !       BB          3.2      Frozen                                    !
 ------------------------------------------------------------------------
 Trust Radius=3.00D-01 FncErr=1.00D-07 GrdErr=1.00D-06
 Number of steps in this run=     50 maximum allowed number of steps=    100.
 GradGradGradGradGradGradGradGradGradGradGradGradGradGradGradGradGradGrad

 ---------------------------------------------------------------------------------------------------
                            Z-MATRIX (ANGSTROMS AND DEGREES)
   CD    Cent   Atom    N1       Length/X        N2       Alpha/Y        N3        Beta/Z          J
 ---------------------------------------------------------------------------------------------------
      1      1  C 
      2      2  H        1   1.083400(     1)
      3      3  H        1   1.083500(     2)      2  112.803(     8)
      4      4  H        1   1.083500(     3)      2  112.804(     9)      3  230.784(    14)      0
      5      5  C        1   3.200000(     4)      2  105.898(    10)      3  115.395(    15)      0
      6      6  H        5   1.083400(     5)      1  105.902(    11)      2   60.010(    16)      0
      7      7  H        5   1.083500(     6)      6  112.802(    12)      1  115.383(    17)      0
      8      8  H        5   1.083500(     7)      6  112.805(    13)      7  129.216(    18)      0
 ---------------------------------------------------------------------------------------------------
                         Z-Matrix orientation:                         
 ---------------------------------------------------------------------
 Center     Atomic      Atomic             Coordinates (Angstroms)
 Number     Number       Type             X           Y           Z
 ---------------------------------------------------------------------
      1          6           0        0.000000    0.000000    0.000000
      2          1           0        0.000000    0.000000    1.083400
      3          1           0        0.998814    0.000000   -0.419932
      4          1           0       -0.631495    0.773848   -0.419936
      5          6           0       -1.319869   -2.780215   -0.876557
      6          1           0       -2.318721   -2.779982   -0.456973
      7          1           0       -0.688232   -3.553982   -0.456688
      8          1           0       -1.319497   -2.780593   -1.960057
 ---------------------------------------------------------------------
                    Distance matrix (angstroms):
                    1          2          3          4          5
     1  C    0.000000
     2  H    1.083400   0.000000
     3  H    1.083500   1.804893   0.000000
     4  H    1.083500   1.804895   1.804646   0.000000
     5  C    3.200000   3.648709   3.648889   3.648797   0.000000
     6  H    3.648779   3.934147   4.328477   3.934185   1.083400
     7  H    3.648701   3.933996   3.934243   4.328358   1.083500
     8  H    3.648917   4.328441   3.934240   3.934383   1.083500
                    6          7          8
     6  H    0.000000
     7  H    1.804875   0.000000
     8  H    1.804912   1.804645   0.000000
 Symmetry turned off by external request.
 Stoichiometry    C2H6
 Framework group  C1[X(C2H6)]
 Deg. of freedom    18
 Full point group                 C1      NOp   1
 Rotational constants (GHZ):     76.9730380      5.8439076      5.8438625
 Standard basis: Aug-CC-pVTZ (5D, 7F)
   230 basis functions,   306 primitive gaussians,   260 cartesian basis functions
     9 alpha electrons        9 beta electrons
       nuclear repulsion energy        31.6900785758 Hartrees.
 NAtoms=    8 NActive=    8 NUniq=    8 SFac= 1.00D+00 NAtFMM=   60 NAOKFM=F Big=F
 Integral buffers will be    131072 words long.
 Raffenetti 2 integral format.
 Two-electron integral symmetry is turned off.
 Nuclear repulsion after empirical dispersion term =       31.6888653746 Hartrees.
 One-electron integrals computed using PRISM.
 NBasis=   230 RedAO= T EigKep=  1.05D-04  NBF=   230
 NBsUse=   230 1.00D-06 EigRej= -1.00D+00 NBFU=   230
 ExpMin= 2.53D-02 ExpMax= 8.24D+03 ExpMxC= 2.81D+02 IAcc=3 IRadAn=         5 AccDes= 0.00D+00
 Harris functional with IExCor= 4639 and IRadAn=       5 diagonalized for initial guess.
 HarFok:  IExCor= 4639 AccDes= 0.00D+00 IRadAn=         5 IDoV= 1 UseB2=F ITyADJ=14
 ICtDFT=  3500011 ScaDFX=  1.000000  1.000000  1.000000  1.000000
 FoFCou: FMM=F IPFlag=           0 FMFlag=      100000 FMFlg1=           0
         NFxFlg=           0 DoJE=T BraDBF=F KetDBF=T FulRan=T
         wScrn=  0.000000 ICntrl=     500 IOpCl=  0 I1Cent=   200000004 NGrid=           0
         NMat0=    1 NMatS0=      1 NMatT0=    0 NMatD0=    1 NMtDS0=    0 NMtDT0=    0
 Symmetry not used in FoFCou.
 Mixing orbitals, IMix= 1 IMixAn=  0 NRI=1 NE=    9 Coef=  7.07106781D-01  7.07106781D-01
 Mixing orbitals, IMix= 1 IMixAn=  0 NRI=1 NE=    9 Coef= -7.07106781D-01  7.07106781D-01
 Initial guess <Sx>= 0.0000 <Sy>= 0.0000 <Sz>= 0.0000 <S**2>= 1.0000 S= 0.6180
 Requested convergence on RMS density matrix=1.00D-08 within 128 cycles.
 Requested convergence on MAX density matrix=1.00D-06.
 Requested convergence on             energy=1.00D-06.
 No special actions if energy rises.
 SCF Done:  E(UwB97XD) =  -79.6734533879     A.U. after   11 cycles
            NFock= 11  Conv=0.72D-08     -V/T= 2.0075
 <Sx>= 0.0000 <Sy>= 0.0000 <Sz>= 0.0000 <S**2>= 0.8629 S= 0.5549
 <L.S>=  0.00000000000    
 Annihilation of the first spin contaminant:
 S**2 before annihilation     0.8629,   after     0.0349

 **********************************************************************

            Population analysis using the SCF density.

 **********************************************************************

 Alpha  occ. eigenvalues --  -10.29989 -10.28888  -0.78530  -0.74676  -0.49504
 Alpha  occ. eigenvalues --   -0.49496  -0.48180  -0.48172  -0.33027
 Alpha virt. eigenvalues --   -0.00287   0.03356   0.04773   0.04773   0.05056
 Alpha virt. eigenvalues --    0.06666   0.06667   0.11091   0.13123   0.13124
 Alpha virt. eigenvalues --    0.13356   0.13774   0.13775   0.14566   0.15433
 Alpha virt. eigenvalues --    0.20476   0.20478   0.20887   0.20889   0.23278
 Alpha virt. eigenvalues --    0.23278   0.30156   0.30306   0.31317   0.31318
 Alpha virt. eigenvalues --    0.31818   0.32723   0.32724   0.33420   0.33420
 Alpha virt. eigenvalues --    0.33428   0.35854   0.36390   0.37361   0.38469
 Alpha virt. eigenvalues --    0.39250   0.39251   0.40560   0.40562   0.41571
 Alpha virt. eigenvalues --    0.43438   0.43439   0.44825   0.44828   0.45228
 Alpha virt. eigenvalues --    0.48615   0.48615   0.51076   0.51079   0.58794
 Alpha virt. eigenvalues --    0.61621   0.61623   0.67729   0.67734   0.69662
 Alpha virt. eigenvalues --    0.72989   0.76222   0.76297   0.76300   0.77477
 Alpha virt. eigenvalues --    0.77479   0.79276   0.82145   0.83852   0.83852
 Alpha virt. eigenvalues --    0.84736   0.89824   0.91166   0.91166   0.91958
 Alpha virt. eigenvalues --    0.93649   0.96765   0.96766   0.97028   0.97032
 Alpha virt. eigenvalues --    0.98040   0.98043   0.98618   0.98622   0.99529
 Alpha virt. eigenvalues --    1.02343   1.05921   1.07497   1.07503   1.09658
 Alpha virt. eigenvalues --    1.09659   1.12433   1.12434   1.13501   1.14611
 Alpha virt. eigenvalues --    1.15931   1.15933   1.18810   1.18972   1.18975
 Alpha virt. eigenvalues --    1.19122   1.19125   1.30341   1.36099   1.36105
 Alpha virt. eigenvalues --    1.37216   1.37219   1.39881   1.47198   1.47202
 Alpha virt. eigenvalues --    1.48493   1.51593   1.51678   1.52461   1.52463
 Alpha virt. eigenvalues --    1.54921   1.56170   1.56174   1.57665   1.57667
 Alpha virt. eigenvalues --    1.60413   1.65988   1.75878   1.75887   1.76760
 Alpha virt. eigenvalues --    1.76770   1.77990   1.81111   1.90497   1.90771
 Alpha virt. eigenvalues --    1.90784   1.94235   1.94240   1.96064   2.04147
 Alpha virt. eigenvalues --    2.04150   2.09101   2.09104   2.12343   2.14459
 Alpha virt. eigenvalues --    2.78105   2.80203   2.83661   2.83666   2.84781
 Alpha virt. eigenvalues --    2.86773   2.86777   3.04486   3.17686   3.17689
 Alpha virt. eigenvalues --    3.20684   3.20688   3.29717   3.33396   3.33398
 Alpha virt. eigenvalues --    3.33725   3.35314   3.35316   3.37529   3.41082
 Alpha virt. eigenvalues --    3.45772   3.45776   3.50424   3.50425   3.56100
 Alpha virt. eigenvalues --    3.57701   3.57705   3.59914   3.60664   3.60667
 Alpha virt. eigenvalues --    3.74085   3.74090   3.75113   3.75119   3.80535
 Alpha virt. eigenvalues --    3.80969   3.81290   3.83250   3.92166   3.92170
 Alpha virt. eigenvalues --    3.94487   3.94488   4.16247   4.19047   4.19052
 Alpha virt. eigenvalues --    4.21960   4.26035   4.26040   4.43887   4.49154
 Alpha virt. eigenvalues --    4.49156   4.50322   4.50326   4.61139   4.62280
 Alpha virt. eigenvalues --    4.62285   4.62361   4.67229   4.67238   4.68182
 Alpha virt. eigenvalues --    4.85418   4.90699   4.93035   4.93062   4.93825
 Alpha virt. eigenvalues --    4.93851   5.14357   5.14545   5.14561   5.17415
 Alpha virt. eigenvalues --    5.17434   5.21083   5.55302   5.56839   5.64202
 Alpha virt. eigenvalues --    5.69268   5.69304   5.70070   5.70106   5.74584
 Alpha virt. eigenvalues --    6.26593   6.26616   6.28252   6.28272  15.87271
 Alpha virt. eigenvalues --   15.89648
  Beta  occ. eigenvalues --  -10.29989 -10.28888  -0.78530  -0.74676  -0.49504
  Beta  occ. eigenvalues --   -0.49496  -0.48180  -0.48172  -0.33027
  Beta virt. eigenvalues --   -0.00287   0.03356   0.04773   0.04773   0.05056
  Beta virt. eigenvalues --    0.06666   0.06667   0.11091   0.13123   0.13124
  Beta virt. eigenvalues --    0.13356   0.13775   0.13775   0.14566   0.15433
  Beta virt. eigenvalues --    0.20476   0.20478   0.20887   0.20889   0.23278
  Beta virt. eigenvalues --    0.23278   0.30156   0.30306   0.31317   0.31318
  Beta virt. eigenvalues --    0.31818   0.32723   0.32724   0.33420   0.33420
  Beta virt. eigenvalues --    0.33428   0.35854   0.36390   0.37361   0.38469
  Beta virt. eigenvalues --    0.39250   0.39251   0.40560   0.40562   0.41571
  Beta virt. eigenvalues --    0.43438   0.43439   0.44825   0.44828   0.45228
  Beta virt. eigenvalues --    0.48615   0.48615   0.51076   0.51079   0.58794
  Beta virt. eigenvalues --    0.61621   0.61623   0.67729   0.67734   0.69662
  Beta virt. eigenvalues --    0.72989   0.76222   0.76297   0.76299   0.77477
  Beta virt. eigenvalues --    0.77479   0.79276   0.82145   0.83852   0.83852
  Beta virt. eigenvalues --    0.84736   0.89824   0.91166   0.91166   0.91958
  Beta virt. eigenvalues --    0.93649   0.96765   0.96766   0.97028   0.97032
  Beta virt. eigenvalues --    0.98040   0.98044   0.98618   0.98621   0.99529
  Beta virt. eigenvalues --    1.02343   1.05921   1.07497   1.07503   1.09658
  Beta virt. eigenvalues --    1.09659   1.12433   1.12435   1.13501   1.14611
  Beta virt. eigenvalues --    1.15931   1.15933   1.18810   1.18972   1.18975
  Beta virt. eigenvalues --    1.19121   1.19125   1.30341   1.36099   1.36105
  Beta virt. eigenvalues --    1.37216   1.37219   1.39881   1.47198   1.47202
  Beta virt. eigenvalues --    1.48493   1.51593   1.51678   1.52461   1.52463
  Beta virt. eigenvalues --    1.54921   1.56170   1.56174   1.57665   1.57667
  Beta virt. eigenvalues --    1.60413   1.65988   1.75878   1.75887   1.76760
  Beta virt. eigenvalues --    1.76770   1.77990   1.81111   1.90497   1.90772
  Beta virt. eigenvalues --    1.90783   1.94235   1.94240   1.96064   2.04147
  Beta virt. eigenvalues --    2.04150   2.09101   2.09104   2.12343   2.14459
  Beta virt. eigenvalues --    2.78105   2.80203   2.83662   2.83665   2.84781
  Beta virt. eigenvalues --    2.86773   2.86776   3.04486   3.17685   3.17689
  Beta virt. eigenvalues --    3.20684   3.20688   3.29717   3.33396   3.33398
  Beta virt. eigenvalues --    3.33725   3.35314   3.35316   3.37529   3.41082
  Beta virt. eigenvalues --    3.45773   3.45776   3.50423   3.50426   3.56100
  Beta virt. eigenvalues --    3.57701   3.57705   3.59913   3.60663   3.60668
  Beta virt. eigenvalues --    3.74085   3.74090   3.75113   3.75119   3.80535
  Beta virt. eigenvalues --    3.80969   3.81290   3.83250   3.92166   3.92170
  Beta virt. eigenvalues --    3.94486   3.94489   4.16247   4.19047   4.19052
  Beta virt. eigenvalues --    4.21960   4.26035   4.26040   4.43887   4.49154
  Beta virt. eigenvalues --    4.49155   4.50322   4.50326   4.61139   4.62280
  Beta virt. eigenvalues --    4.62285   4.62361   4.67229   4.67238   4.68182
  Beta virt. eigenvalues --    4.85418   4.90699   4.93035   4.93062   4.93824
  Beta virt. eigenvalues --    4.93851   5.14357   5.14545   5.14561   5.17414
  Beta virt. eigenvalues --    5.17434   5.21083   5.55302   5.56839   5.64202
  Beta virt. eigenvalues --    5.69268   5.69304   5.70070   5.70105   5.74584
  Beta virt. eigenvalues --    6.26594   6.26615   6.28251   6.28274  15.87271
  Beta virt. eigenvalues --   15.89648
          Condensed to atoms (all electrons):
               1          2          3          4          5          6
     1  C    5.815973   0.362465   0.362465   0.362467   0.034315  -0.000912
     2  H    0.362465   0.309212   0.008875   0.008862  -0.000906  -0.000117
     3  H    0.362465   0.008875   0.309265   0.008875  -0.000909   0.000039
     4  H    0.362467   0.008862   0.008875   0.309244  -0.000905  -0.000118
     5  C    0.034315  -0.000906  -0.000909  -0.000905   5.815973   0.362469
     6  H   -0.000912  -0.000117   0.000039  -0.000118   0.362469   0.309227
     7  H   -0.000906  -0.000117  -0.000117   0.000039   0.362462   0.008872
     8  H   -0.000902   0.000039  -0.000117  -0.000117   0.362466   0.008874
               7          8
     1  C   -0.000906  -0.000902
     2  H   -0.000117   0.000039
     3  H   -0.000117  -0.000117
     4  H    0.000039  -0.000117
     5  C    0.362462   0.362466
     6  H    0.008872   0.008874
     7  H    0.309245   0.008866
     8  H    0.008866   0.309249
          Atomic-Atomic Spin Densities.
               1          2          3          4          5          6
     1  C   -0.892260  -0.018009  -0.017998  -0.017967  -0.000000   0.001821
     2  H   -0.018009   0.029013  -0.003754  -0.003767  -0.001816   0.000000
     3  H   -0.017998  -0.003754   0.029038  -0.003758  -0.001816   0.000000
     4  H   -0.017967  -0.003767  -0.003758   0.029043  -0.001816   0.000000
     5  C   -0.000000  -0.001816  -0.001816  -0.001816   0.892260   0.018024
     6  H    0.001821   0.000000   0.000000   0.000000   0.018024  -0.029023
     7  H    0.001816  -0.000000  -0.000000   0.000000   0.017966   0.003758
     8  H    0.001812  -0.000000  -0.000000   0.000000   0.017984   0.003754
               7          8
     1  C    0.001816   0.001812
     2  H   -0.000000  -0.000000
     3  H   -0.000000  -0.000000
     4  H    0.000000   0.000000
     5  C    0.017966   0.017984
     6  H    0.003758   0.003754
     7  H   -0.029043   0.003768
     8  H    0.003768  -0.029027
 Mulliken charges and spin densities:
               1          2
     1  C   -0.934965  -0.940786
     2  H    0.311688   0.001666
     3  H    0.311624   0.001712
     4  H    0.311653   0.001735
     5  C   -0.934964   0.940786
     6  H    0.311665  -0.001667
     7  H    0.311656  -0.001736
     8  H    0.311643  -0.001710
 Sum of Mulliken charges =  -0.00000  -0.00000
 Mulliken charges and spin densities with hydrogens summed into heavy atoms:
               1          2
     1  C    0.000000  -0.935673
     5  C   -0.000000   0.935673
 Electronic spatial extent (au):  <R**2>=            406.9361
 Charge=             -0.0000 electrons
 Dipole moment (field-independent basis, Debye):
    X=              0.0001    Y=             -0.0000    Z=              0.0000  Tot=              0.0001
 Quadrupole moment (field-independent basis, Debye-Ang):
   XX=            -14.7014   YY=            -13.9483   ZZ=            -14.8232
   XY=              0.4615   XZ=              0.1447   YZ=              0.3064
 Traceless Quadrupole moment (field-independent basis, Debye-Ang):
   XX=             -0.2104   YY=              0.5427   ZZ=             -0.3322
   XY=              0.4615   XZ=              0.1447   YZ=              0.3064
 Octapole moment (field-independent basis, Debye-Ang**2):
  XXX=             29.1026  YYY=             58.1697  ZZZ=             19.4926  XYY=              7.9228
  XXY=             19.8270  XXZ=              6.2528  XZZ=              9.6564  YZZ=             20.3373
  YYZ=              5.2598  XYZ=             -0.6056
 Hexadecapole moment (field-independent basis, Debye-Ang**3):
 XXXX=           -107.3260 YYYY=           -383.1550 ZZZZ=            -61.8173 XXXY=            -81.8911
 XXXZ=            -28.9017 YYYX=            -87.1327 YYYZ=            -57.8613 ZZZX=            -25.1955
 ZZZY=            -53.0662 XXYY=            -82.4613 XXZZ=            -30.6162 YYZZ=            -75.7828
 XXYZ=            -19.7121 YYXZ=             -7.9289 ZZXY=            -27.6871
 N-N= 3.168886537461D+01 E-N=-2.471587761979D+02  KE= 7.908316087655D+01
                          Isotropic Fermi Contact Couplings
        Atom                 a.u.       MegaHertz       Gauss      10(-4) cm-1
     1  C(13)             -0.16603     -93.32420     -33.30039     -31.12960
     2  H(1)               0.00708      15.82847       5.64799       5.27981
     3  H(1)               0.00708      15.82427       5.64649       5.27841
     4  H(1)               0.00709      15.83766       5.65127       5.28287
     5  C(13)              0.16603      93.32450      33.30050      31.12970
     6  H(1)              -0.00708     -15.81547      -5.64335      -5.27547
     7  H(1)              -0.00709     -15.83840      -5.65154      -5.28312
     8  H(1)              -0.00709     -15.83643      -5.65083      -5.28246
 --------------------------------------------------------
       Center         ----  Spin Dipole Couplings  ----
                      3XX-RR        3YY-RR        3ZZ-RR
 --------------------------------------------------------
     1   Atom        0.237161     -0.612351      0.375189
     2   Atom        0.051685      0.017509     -0.069193
     3   Atom       -0.050034      0.017510      0.032524
     4   Atom       -0.004200     -0.028326      0.032526
     5   Atom       -0.237158      0.612483     -0.375324
     6   Atom        0.050065     -0.017496     -0.032569
     7   Atom        0.004223      0.028318     -0.032541
     8   Atom       -0.051672     -0.017514      0.069186
 --------------------------------------------------------
                        XY            XZ            YZ
 --------------------------------------------------------
     1   Atom       -0.520522     -0.164154     -0.345804
     2   Atom       -0.020940      0.001395      0.002940
     3   Atom       -0.005394      0.044161     -0.020440
     4   Atom        0.032006     -0.043751      0.021288
     5   Atom        0.520580      0.164054      0.345574
     6   Atom        0.005365     -0.044142      0.020447
     7   Atom       -0.032010      0.043748     -0.021283
     8   Atom        0.020938     -0.001443     -0.002898
 --------------------------------------------------------


 ---------------------------------------------------------------------------------
              Anisotropic Spin Dipole Couplings in Principal Axis System
 ---------------------------------------------------------------------------------

       Atom             a.u.   MegaHertz   Gauss  10(-4) cm-1        Axes

              Baa    -0.9685  -129.961   -46.373   -43.350  0.4124  0.8688  0.2740
     1 C(13)  Bbb     0.4842    64.979    23.186    21.675  0.5651 -0.4799  0.6711
              Bcc     0.4842    64.981    23.187    21.675  0.7145 -0.1219 -0.6889
 
              Baa    -0.0693   -36.992   -13.200   -12.339 -0.0181 -0.0382  0.9991
     2 H(1)   Bbb     0.0077     4.112     1.467     1.372  0.4284  0.9026  0.0423
              Bcc     0.0616    32.880    11.732    10.967  0.9034 -0.4288  0.0000
 
              Baa    -0.0693   -36.989   -13.199   -12.338  0.9140 -0.0383 -0.4040
     3 H(1)   Bbb     0.0077     4.115     1.468     1.373  0.2051  0.9026  0.3785
              Bcc     0.0616    32.874    11.730    10.966  0.3501 -0.4288  0.8328
 
              Baa    -0.0693   -36.989   -13.198   -12.338 -0.6075  0.6840 -0.4039
     4 H(1)   Bbb     0.0077     4.115     1.469     1.373  0.5696  0.7295  0.3786
              Bcc     0.0616    32.873    11.730    10.965 -0.5536  0.0001  0.8328
 
              Baa    -0.4843   -64.984   -23.188   -21.676  0.8745 -0.2934 -0.3863
     5 C(13)  Bbb    -0.4842   -64.977   -23.185   -21.674  0.2553 -0.3987  0.8808
              Bcc     0.9685   129.961    46.373    43.350  0.4124  0.8689  0.2738
 
              Baa    -0.0616   -32.880   -11.732   -10.967  0.3498 -0.4285  0.8331
     6 H(1)   Bbb    -0.0077    -4.114    -1.468    -1.372  0.2051  0.9027  0.3782
              Bcc     0.0693    36.993    13.200    12.340  0.9141 -0.0386 -0.4037
 
              Baa    -0.0616   -32.873   -11.730   -10.965 -0.5534  0.0001  0.8329
     7 H(1)   Bbb    -0.0077    -4.116    -1.469    -1.373  0.5697  0.7296  0.3784
              Bcc     0.0693    36.989    13.199    12.338 -0.6076  0.6839 -0.4038
 
              Baa    -0.0616   -32.874   -11.730   -10.966  0.9034 -0.4289  0.0005
     8 H(1)   Bbb    -0.0077    -4.113    -1.468    -1.372  0.4285  0.9026  0.0421
              Bcc     0.0693    36.987    13.198    12.338 -0.0185 -0.0378  0.9991
 

 ---------------------------------------------------------------------------------

 DipInt: DoE/N= T T RetVal/Mat= T F Init=T NMatP=  1 IDeriv=0 Min/MaxMlt=  1  1
 Entering OneElI...
 Multipole integrals L=1 to 1 MinM= 0 MaxM= 0.
 Requested accuracy = 0.1000D-12
 PrsmSu:  NPrtUS=   1 ThrOK=F IAlg=1 NPAlg=1 LenDen=           0.
 Prism:   IPart=     0 DynPar=F LinDyn=F Incr=          33.
 PRISM was handed   419153409 working-precision words and  3372 shell-pairs
 IPart=  0 NShTot=        3372 NBatch=          42 AvBLen=        80.3
 PrSmSu:  NxtVal=             34.
 Entering OneElI...
 Calculate overlap and kinetic energy integrals
    NBasis = 260  MinDer = 1  MaxDer = 1
 Requested accuracy = 0.1000D-12
 PrsmSu:  NPrtUS=  32 ThrOK=T IAlg=1 NPAlg=1 LenDen=           0.
 Prism:   IPart=     0 DynPar=F LinDyn=F Incr=           1.
 PRISM was handed    13042406 working-precision words and  3402 shell-pairs
 PRISM was handed    13042406 working-precision words and  3402 shell-pairs
 PRISM was handed    13042406 working-precision words and  3402 shell-pairs
 PRISM was handed    13042406 working-precision words and  3402 shell-pairs
 PRISM was handed    13042406 working-precision words and  3402 shell-pairs
 PRISM was handed    13042406 working-precision words and  3402 shell-pairs
 PRISM was handed    13042406 working-precision words and  3402 shell-pairs
 PRISM was handed    13042406 working-precision words and  3402 shell-pairs
 PRISM was handed    13042406 working-precision words and  3402 shell-pairs
 PRISM was handed    13042406 working-precision words and  3402 shell-pairs
 PRISM was handed    13042406 working-precision words and  3402 shell-pairs
 PRISM was handed    13042406 working-precision words and  3402 shell-pairs
 PRISM was handed    13042406 working-precision words and  3402 shell-pairs
 PRISM was handed    13042406 working-precision words and  3402 shell-pairs
 PRISM was handed    13042406 working-precision words and  3402 shell-pairs
 PRISM was handed    13042406 working-precision words and  3402 shell-pairs
 PRISM was handed    13042406 working-precision words and  3402 shell-pairs
 PRISM was handed    13042406 working-precision words and  3402 shell-pairs
 PRISM was handed    13042406 working-precision words and  3402 shell-pairs
 PRISM was handed    13042406 working-precision words and  3402 shell-pairs
 PRISM was handed    13042406 working-precision words and  3402 shell-pairs
 PRISM was handed    13042406 working-precision words and  3402 shell-pairs
 PRISM was handed    13042406 working-precision words and  3402 shell-pairs
 PRISM was handed    13042406 working-precision words and  3402 shell-pairs
 PRISM was handed    13042406 working-precision words and  3402 shell-pairs
 PRISM was handed    13042406 working-precision words and  3402 shell-pairs
 PRISM was handed    13042406 working-precision words and  3402 shell-pairs
 PRISM was handed    13042406 working-precision words and  3402 shell-pairs
 PRISM was handed    13042406 working-precision words and  3402 shell-pairs
 PRISM was handed    13042406 working-precision words and  3402 shell-pairs
 PRISM was handed    13042406 working-precision words and  3402 shell-pairs
 PRISM was handed    13042406 working-precision words and  3402 shell-pairs
 IPart=  0 NShTot=         135 NBatch=          42 AvBLen=         3.2
 IPart= 31 NShTot=          95 NBatch=          20 AvBLen=         4.8
 IPart= 13 NShTot=         106 NBatch=          21 AvBLen=         5.0
 IPart= 26 NShTot=          95 NBatch=          20 AvBLen=         4.8
 IPart= 30 NShTot=          95 NBatch=          20 AvBLen=         4.8
 IPart= 22 NShTot=          97 NBatch=          21 AvBLen=         4.6
 IPart= 15 NShTot=         105 NBatch=          21 AvBLen=         5.0
 IPart= 20 NShTot=          97 NBatch=          21 AvBLen=         4.6
 IPart=  7 NShTot=         115 NBatch=          26 AvBLen=         4.4
 IPart= 28 NShTot=          95 NBatch=          20 AvBLen=         4.8
 IPart= 11 NShTot=         108 NBatch=          22 AvBLen=         4.9
 IPart= 24 NShTot=          95 NBatch=          20 AvBLen=         4.8
 IPart=  3 NShTot=         126 NBatch=          33 AvBLen=         3.8
 IPart= 18 NShTot=          98 NBatch=          21 AvBLen=         4.7
 IPart= 19 NShTot=          98 NBatch=          21 AvBLen=         4.7
 IPart=  8 NShTot=         111 NBatch=          23 AvBLen=         4.8
 IPart= 25 NShTot=          95 NBatch=          20 AvBLen=         4.8
 IPart=  2 NShTot=         126 NBatch=          33 AvBLen=         3.8
 IPart= 14 NShTot=         106 NBatch=          21 AvBLen=         5.0
 IPart=  5 NShTot=         123 NBatch=          33 AvBLen=         3.7
 IPart= 12 NShTot=         106 NBatch=          21 AvBLen=         5.0
 IPart= 23 NShTot=          97 NBatch=          21 AvBLen=         4.6
 IPart= 29 NShTot=          95 NBatch=          20 AvBLen=         4.8
 IPart= 16 NShTot=         100 NBatch=          21 AvBLen=         4.8
 IPart= 27 NShTot=          95 NBatch=          20 AvBLen=         4.8
 IPart=  1 NShTot=         133 NBatch=          40 AvBLen=         3.3
 IPart= 21 NShTot=          97 NBatch=          21 AvBLen=         4.6
 IPart=  6 NShTot=         115 NBatch=          26 AvBLen=         4.4
 IPart= 17 NShTot=         100 NBatch=          21 AvBLen=         4.8
 IPart=  4 NShTot=         123 NBatch=          33 AvBLen=         3.7
 IPart= 10 NShTot=         109 NBatch=          22 AvBLen=         5.0
 IPart=  9 NShTot=         111 NBatch=          23 AvBLen=         4.8
 PrSmSu:  NxtVal=             33.
 Entering OneElI...
 Calculate potential energy integrals
    NBasis = 260  MinDer = 1  MaxDer = 1
 Requested accuracy = 0.1000D-12
 PrsmSu:  NPrtUS=  32 ThrOK=T IAlg=1 NPAlg=1 LenDen=           0.
 Prism:   IPart=     0 DynPar=F LinDyn=F Incr=           8.
 PRISM was handed    13049090 working-precision words and  3279 shell-pairs
 PRISM was handed    13049090 working-precision words and  3279 shell-pairs
 PRISM was handed    13049090 working-precision words and  3279 shell-pairs
 PRISM was handed    13049090 working-precision words and  3279 shell-pairs
 PRISM was handed    13049090 working-precision words and  3279 shell-pairs
 PRISM was handed    13049090 working-precision words and  3279 shell-pairs
 PRISM was handed    13049090 working-precision words and  3279 shell-pairs
 PRISM was handed    13049090 working-precision words and  3279 shell-pairs
 PRISM was handed    13049090 working-precision words and  3279 shell-pairs
 PRISM was handed    13049090 working-precision words and  3279 shell-pairs
 PRISM was handed    13049090 working-precision words and  3279 shell-pairs
 PRISM was handed    13049090 working-precision words and  3279 shell-pairs
 PRISM was handed    13049090 working-precision words and  3279 shell-pairs
 PRISM was handed    13049090 working-precision words and  3279 shell-pairs
 PRISM was handed    13049090 working-precision words and  3279 shell-pairs
 PRISM was handed    13049090 working-precision words and  3279 shell-pairs
 PRISM was handed    13049090 working-precision words and  3279 shell-pairs
 PRISM was handed    13049090 working-precision words and  3279 shell-pairs
 PRISM was handed    13049090 working-precision words and  3279 shell-pairs
 PRISM was handed    13049090 working-precision words and  3279 shell-pairs
 PRISM was handed    13049090 working-precision words and  3279 shell-pairs
 PRISM was handed    13049090 working-precision words and  3279 shell-pairs
 PRISM was handed    13049090 working-precision words and  3279 shell-pairs
 PRISM was handed    13049090 working-precision words and  3279 shell-pairs
 PRISM was handed    13049090 working-precision words and  3279 shell-pairs
 PRISM was handed    13049090 working-precision words and  3279 shell-pairs
 PRISM was handed    13049090 working-precision words and  3279 shell-pairs
 PRISM was handed    13049090 working-precision words and  3279 shell-pairs
 PRISM was handed    13049090 working-precision words and  3279 shell-pairs
 PRISM was handed    13049090 working-precision words and  3279 shell-pairs
 PRISM was handed    13049090 working-precision words and  3279 shell-pairs
 PRISM was handed    13049090 working-precision words and  3279 shell-pairs
 IPart= 16 NShTot=         784 NBatch=          98 AvBLen=         8.0
 IPart= 12 NShTot=         816 NBatch=         102 AvBLen=         8.0
 IPart= 10 NShTot=         824 NBatch=         103 AvBLen=         8.0
 IPart= 21 NShTot=         760 NBatch=          95 AvBLen=         8.0
 IPart= 14 NShTot=         800 NBatch=         100 AvBLen=         8.0
 IPart= 27 NShTot=         760 NBatch=          95 AvBLen=         8.0
 IPart=  4 NShTot=         928 NBatch=         116 AvBLen=         8.0
 IPart= 25 NShTot=         760 NBatch=          95 AvBLen=         8.0
 IPart=  8 NShTot=         848 NBatch=         106 AvBLen=         8.0
 IPart=  2 NShTot=         944 NBatch=         118 AvBLen=         8.0
 IPart= 19 NShTot=         776 NBatch=          97 AvBLen=         8.0
 IPart= 29 NShTot=         736 NBatch=          92 AvBLen=         8.0
 IPart=  1 NShTot=        1032 NBatch=         129 AvBLen=         8.0
 IPart=  6 NShTot=         872 NBatch=         109 AvBLen=         8.0
 IPart= 23 NShTot=         760 NBatch=          95 AvBLen=         8.0
 IPart= 31 NShTot=         720 NBatch=          90 AvBLen=         8.0
 IPart= 20 NShTot=         760 NBatch=          95 AvBLen=         8.0
 IPart= 18 NShTot=         776 NBatch=          97 AvBLen=         8.0
 IPart= 26 NShTot=         760 NBatch=          95 AvBLen=         8.0
 IPart=  0 NShTot=        1040 NBatch=         130 AvBLen=         8.0
 IPart= 15 NShTot=         800 NBatch=         100 AvBLen=         8.0
 IPart= 17 NShTot=         784 NBatch=          98 AvBLen=         8.0
 IPart= 30 NShTot=         720 NBatch=          90 AvBLen=         8.0
 IPart= 11 NShTot=         816 NBatch=         102 AvBLen=         8.0
 IPart= 22 NShTot=         760 NBatch=          95 AvBLen=         8.0
 IPart=  9 NShTot=         848 NBatch=         106 AvBLen=         8.0
 IPart=  7 NShTot=         872 NBatch=         109 AvBLen=         8.0
 IPart= 13 NShTot=         816 NBatch=         102 AvBLen=         8.0
 IPart=  3 NShTot=         936 NBatch=         117 AvBLen=         8.0
 IPart=  5 NShTot=         928 NBatch=         116 AvBLen=         8.0
 IPart= 28 NShTot=         736 NBatch=          92 AvBLen=         8.0
 IPart= 24 NShTot=         760 NBatch=          95 AvBLen=         8.0
 PrSmSu:  NxtVal=            257.
 l701 out
 I=    0 X=   2.580108206418D-05 Y=  -1.358425086195D-05 Z=   4.110202993957D-06
 I=    1 X=  -3.532213769562D-01 Y=  -7.447605165117D-01 Z=  -2.339423410330D-01
 I=    2 X=   9.117161427104D-02 Y=   1.924191053017D-01 Z=   2.834137447459D+00
 I=    3 X=   2.647820654133D+00 Y=   1.923921187132D-01 Z=  -1.014304416393D+00
 I=    4 X=  -1.525055194337D+00 Y=   2.173105363772D+00 Z=  -1.014234052480D+00
 I=    5 X=   3.521550748819D-01 Y=   7.449401100906D-01 Z=   2.349921583481D-01
 I=    6 X=  -2.648331422451D+00 Y=  -1.917755202232D-01 Z=   1.013474830067D+00
 I=    7 X=   1.525544246779D+00 Y=  -2.172899515069D+00 Z=   1.013866302455D+00
 I=    8 X=  -9.008359632105D-02 Y=  -1.934211460736D-01 Z=  -2.833989928424D+00
 ICntrl=      2127.
 Calling FoFJK, ICntrl=      2127 FMM=F ISym2X=0 I1Cent= 0 IOpClX= 1 NMat=1 NMatS=1 NMatT=0.
 FoFJK:  IHMeth= 1 ICntrl=    2127 DoSepK=T KAlg= 0 I1Cent=   0 FoldK=F
 IRaf=         1 NMat=   1 IRICut=       1 DoRegI=T DoRafI=F ISym2E= 0.
 FoFCou: FMM=F IPFlag=           0 FMFlag=      100000 FMFlg1=         800
         NFxFlg=           0 DoJE=F BraDBF=F KetDBF=F FulRan=T
         wScrn=  0.000000 ICntrl=    2527 IOpCl=  0 I1Cent=           0 NGrid=           0
         NMat0=    1 NMatS0=      1 NMatT0=    0 NMatD0=    1 NMtDS0=    0 NMtDT0=    0
 Symmetry not used in FoFCou.
 FoFCou:  KetSym=F NOpSet=  1 NOpAb=1 NOp=  1.
 FoFCou:  CnvScl= 1.00D+00 Thresh= 1.00D-10 IAcrcy=      10.
 PrismS was handed   419083494 working-precision words and  3339 shell-pairs
 FoFCou: LinMIO=F DoNuc=F BraDBF=F KetDBF=F HaveP=T PDBF=F HaveZ=T HaveW=F
         NIJTC =      10 NIJTAt=       0 NIJTCD=       0 NIJTT =      10
         IJTBeg=       1 IJTEnd=      10 KLTBeg=       1 KLTEnd=      10
         IPTBeg=       1 IPTEnd=      10 IPTBCv=       1 IPTECv=      10
         IZTBeg=       1 IZTEnd=      10 IZTBCv=       1 IZTECv=      10
         IWTBeg=      11 IWTEnd=      10 IWTBCv=      11 IWTECv=      10
         INTBeg=       1 INTEnd=       0 IFTBCv=       1 IFTECv=      10
 NCel replicated for PrismC:     1
 CoulSu:  IncDef=  1024 NBBP=        5576130 NTPThr=   100 NPartT=   32 Incr=        1024 LDynOK=F.
 CoulSu:  NPrtUS=  32 ThrOK=T IAlg=1 NPAlg=1 LenDen=           0 LWGrdD=           0 DoCopy=F.
 Enter PrismC: JobTyp=21 DoJE=F Cont=F.
 PrismC:  IPart=     0 DynPar=T LinDyn=F Incr=        1024 UseFst=F UseS4=T IGathr=2.
 PrismC was handed    13045990 working-precision words and  3339 shell-pairs
 Enter PrismC: JobTyp=21 DoJE=F Cont=F.
 Enter PrismC: JobTyp=21 DoJE=F Cont=F.
 Enter PrismC: JobTyp=21 DoJE=F Cont=F.
 Enter PrismC: JobTyp=21 DoJE=F Cont=F.
 Enter PrismC: JobTyp=21 DoJE=F Cont=F.
 Enter PrismC: JobTyp=21 DoJE=F Cont=F.
 Enter PrismC: JobTyp=21 DoJE=F Cont=F.
 Enter PrismC: JobTyp=21 DoJE=F Cont=F.
 Enter PrismC: JobTyp=21 DoJE=F Cont=F.
 Enter PrismC: JobTyp=21 DoJE=F Cont=F.
 Enter PrismC: JobTyp=21 DoJE=F Cont=F.
 Enter PrismC: JobTyp=21 DoJE=F Cont=F.
 Enter PrismC: JobTyp=21 DoJE=F Cont=F.
 Enter PrismC: JobTyp=21 DoJE=F Cont=F.
 PrismC was handed    13045990 working-precision words and  3339 shell-pairs
 Enter PrismC: JobTyp=21 DoJE=F Cont=F.
 PrismC was handed    13045990 working-precision words and  3339 shell-pairs
 Enter PrismC: JobTyp=21 DoJE=F Cont=F.
 PrismC was handed    13045990 working-precision words and  3339 shell-pairs
 Enter PrismC: JobTyp=21 DoJE=F Cont=F.
 PrismC was handed    13045990 working-precision words and  3339 shell-pairs
 Enter PrismC: JobTyp=21 DoJE=F Cont=F.
 PrismC was handed    13045990 working-precision words and  3339 shell-pairs
 Enter PrismC: JobTyp=21 DoJE=F Cont=F.
 Enter PrismC: JobTyp=21 DoJE=F Cont=F.
 PrismC was handed    13045990 working-precision words and  3339 shell-pairs
 Enter PrismC: JobTyp=21 DoJE=F Cont=F.
 PrismC was handed    13045990 working-precision words and  3339 shell-pairs
 Enter PrismC: JobTyp=21 DoJE=F Cont=F.
 PrismC was handed    13045990 working-precision words and  3339 shell-pairs
 Enter PrismC: JobTyp=21 DoJE=F Cont=F.
 PrismC was handed    13045990 working-precision words and  3339 shell-pairs
 Enter PrismC: JobTyp=21 DoJE=F Cont=F.
 PrismC was handed    13045990 working-precision words and  3339 shell-pairs
 Enter PrismC: JobTyp=21 DoJE=F Cont=F.
 PrismC was handed    13045990 working-precision words and  3339 shell-pairs
 Enter PrismC: JobTyp=21 DoJE=F Cont=F.
 Enter PrismC: JobTyp=21 DoJE=F Cont=F.
 PrismC was handed    13045990 working-precision words and  3339 shell-pairs
 Enter PrismC: JobTyp=21 DoJE=F Cont=F.
 PrismC was handed    13045990 working-precision words and  3339 shell-pairs
 Enter PrismC: JobTyp=21 DoJE=F Cont=F.
 Enter PrismC: JobTyp=21 DoJE=F Cont=F.
 Enter PrismC: JobTyp=21 DoJE=F Cont=F.
 PrismC was handed    13045990 working-precision words and  3339 shell-pairs
 PrismC was handed    13045990 working-precision words and  3339 shell-pairs
 PrismC was handed    13045990 working-precision words and  3339 shell-pairs
 PrismC was handed    13045990 working-precision words and  3339 shell-pairs
 PrismC was handed    13045990 working-precision words and  3339 shell-pairs
 PrismC was handed    13045990 working-precision words and  3339 shell-pairs
 PrismC was handed    13045990 working-precision words and  3339 shell-pairs
 PrismC was handed    13045990 working-precision words and  3339 shell-pairs
 PrismC was handed    13045990 working-precision words and  3339 shell-pairs
 PrismC was handed    13045990 working-precision words and  3339 shell-pairs
 PrismC was handed    13045990 working-precision words and  3339 shell-pairs
 PrismC was handed    13045990 working-precision words and  3339 shell-pairs
 PrismC was handed    13045990 working-precision words and  3339 shell-pairs
 PrismC was handed    13045990 working-precision words and  3339 shell-pairs
 PrismC was handed    13045990 working-precision words and  3339 shell-pairs
 PrismC was handed    13045990 working-precision words and  3339 shell-pairs
 PrismC was handed    13045990 working-precision words and  3339 shell-pairs
 PrismC was handed    13045990 working-precision words and  3339 shell-pairs
 IPart= 28 NShTot=      163378 NShNF=      163378 NShFF=           0 NBatch=        1348 AvBLen=       121.2
 IPart= 15 NShTot=      152305 NShNF=      152305 NShFF=           0 NBatch=        1359 AvBLen=       112.1
 IPart=  5 NShTot=      158351 NShNF=      158351 NShFF=           0 NBatch=        1349 AvBLen=       117.4
 IPart= 26 NShTot=      164081 NShNF=      164081 NShFF=           0 NBatch=        1091 AvBLen=       150.4
 IPart= 30 NShTot=      149551 NShNF=      149551 NShFF=           0 NBatch=        1350 AvBLen=       110.8
 IPart= 14 NShTot=      140498 NShNF=      140498 NShFF=           0 NBatch=        1260 AvBLen=       111.5
 IPart=  9 NShTot=      120459 NShNF=      120459 NShFF=           0 NBatch=        1055 AvBLen=       114.2
 IPart= 31 NShTot=      164074 NShNF=      164074 NShFF=           0 NBatch=        1344 AvBLen=       122.1
 IPart=  7 NShTot=      147836 NShNF=      147836 NShFF=           0 NBatch=        1382 AvBLen=       107.0
 IPart=  8 NShTot=      161839 NShNF=      161839 NShFF=           0 NBatch=        1382 AvBLen=       117.1
 IPart=  2 NShTot=      158660 NShNF=      158660 NShFF=           0 NBatch=        1350 AvBLen=       117.5
 IPart= 23 NShTot=      160205 NShNF=      160205 NShFF=           0 NBatch=        1383 AvBLen=       115.8
 IPart=  6 NShTot=      148467 NShNF=      148467 NShFF=           0 NBatch=        1245 AvBLen=       119.3
 IPart= 17 NShTot=      131569 NShNF=      131569 NShFF=           0 NBatch=         954 AvBLen=       137.9
 IPart= 24 NShTot=      149871 NShNF=      149871 NShFF=           0 NBatch=        1321 AvBLen=       113.5
 IPart= 20 NShTot=      143063 NShNF=      143063 NShFF=           0 NBatch=        1262 AvBLen=       113.4
 IPart= 21 NShTot=      156502 NShNF=      156502 NShFF=           0 NBatch=        1365 AvBLen=       114.7
 IPart= 13 NShTot=      154268 NShNF=      154268 NShFF=           0 NBatch=        1230 AvBLen=       125.4
 IPart=  3 NShTot=      156694 NShNF=      156694 NShFF=           0 NBatch=        1368 AvBLen=       114.5
 IPart= 11 NShTot=      160910 NShNF=      160910 NShFF=           0 NBatch=        1379 AvBLen=       116.7
 IPart= 19 NShTot=      159950 NShNF=      159950 NShFF=           0 NBatch=        1403 AvBLen=       114.0
 IPart= 12 NShTot=      155155 NShNF=      155155 NShFF=           0 NBatch=        1360 AvBLen=       114.1
 IPart= 10 NShTot=      167059 NShNF=      167059 NShFF=           0 NBatch=        1393 AvBLen=       119.9
 IPart=  4 NShTot=      148261 NShNF=      148261 NShFF=           0 NBatch=        1335 AvBLen=       111.1
 IPart=  1 NShTot=      142786 NShNF=      142786 NShFF=           0 NBatch=        1307 AvBLen=       109.2
 IPart= 16 NShTot=      157391 NShNF=      157391 NShFF=           0 NBatch=        1234 AvBLen=       127.5
 IPart= 27 NShTot=      145314 NShNF=      145314 NShFF=           0 NBatch=        1356 AvBLen=       107.2
 IPart= 18 NShTot=      160098 NShNF=      160098 NShFF=           0 NBatch=        1281 AvBLen=       125.0
 IPart= 22 NShTot=      148803 NShNF=      148803 NShFF=           0 NBatch=        1384 AvBLen=       107.5
 IPart= 25 NShTot=      154936 NShNF=      154936 NShFF=           0 NBatch=        1321 AvBLen=       117.3
 IPart= 29 NShTot=      154758 NShNF=      154758 NShFF=           0 NBatch=        1379 AvBLen=       112.2
 IPart=  0 NShTot=      104913 NShNF=      104913 NShFF=           0 NBatch=         730 AvBLen=       143.7
 CoulSu:  NxtVal=        6133761.
 FoFCou: FMM=F IPFlag=           0 FMFlag=      100000 FMFlg1=         800
         NFxFlg=           0 DoJE=F BraDBF=F KetDBF=F FulRan=T
         wScrn=  0.000000 ICntrl=    2127 IOpCl=  1 I1Cent=           0 NGrid=           0
         NMat0=    1 NMatS0=      0 NMatT0=    1 NMatD0=    1 NMtDS0=    0 NMtDT0=    0
         CW=    0.222036    0.777964
         WU=    0.000000   12.500000
 Symmetry not used in FoFCou.
 FoFCou:  KetSym=F NOpSet=  1 NOpAb=1 NOp=  1.
 FoFCou:  CnvScl= 1.00D+00 Thresh= 1.00D-10 IAcrcy=      10.
 PrismS was handed   419080147 working-precision words and  3339 shell-pairs
 FoFCou: LinMIO=F DoNuc=F BraDBF=F KetDBF=F HaveP=T PDBF=F HaveZ=T HaveW=F
         NIJTC =      10 NIJTAt=       0 NIJTCD=       0 NIJTT =      10
         IJTBeg=       1 IJTEnd=      10 KLTBeg=       1 KLTEnd=      10
         IPTBeg=       1 IPTEnd=      10 IPTBCv=       1 IPTECv=      10
         IZTBeg=       1 IZTEnd=      10 IZTBCv=       1 IZTECv=      10
         IWTBeg=      11 IWTEnd=      10 IWTBCv=      11 IWTECv=      10
         INTBeg=       1 INTEnd=       0 IFTBCv=       1 IFTECv=      10
 NCel replicated for PrismC:     1
 CoulSu:  IncDef=  1024 NBBP=        5576130 NTPThr=   100 NPartT=   32 Incr=        1024 LDynOK=F.
 CoulSu:  NPrtUS=  32 ThrOK=T IAlg=1 NPAlg=1 LenDen=           0 LWGrdD=           0 DoCopy=F.
 Enter PrismC: JobTyp=21 DoJE=F Cont=F.
 Linear combination for Coulomb/exchange, wScrn=  0.000000
 CW=    0.222036    0.777964
 WU=    0.000000   12.500000
 PrismC:  IPart=     0 DynPar=T LinDyn=F Incr=        1024 UseFst=F UseS4=T IGathr=2.
 PrismC was handed    13045885 working-precision words and  3339 shell-pairs
 Enter PrismC: JobTyp=21 DoJE=F Cont=F.
 Enter PrismC: JobTyp=21 DoJE=F Cont=F.
 Linear combination for Coulomb/exchange, wScrn=  0.000000
 CW=    0.222036    0.777964
 WU=    0.000000   12.500000
 Enter PrismC: JobTyp=21 DoJE=F Cont=F.
 Linear combination for Coulomb/exchange, wScrn=  0.000000
 CW=    0.222036    0.777964
 WU=    0.000000   12.500000
 Enter PrismC: JobTyp=21 DoJE=F Cont=F.
 Linear combination for Coulomb/exchange, wScrn=  0.000000
 CW=    0.222036    0.777964
 WU=    0.000000   12.500000
 PrismC was handed    13045885 working-precision words and  3339 shell-pairs
 Enter PrismC: JobTyp=21 DoJE=F Cont=F.
 Linear combination for Coulomb/exchange, wScrn=  0.000000
 CW=    0.222036    0.777964
 WU=    0.000000   12.500000
 Enter PrismC: JobTyp=21 DoJE=F Cont=F.
 Linear combination for Coulomb/exchange, wScrn=  0.000000
 CW=    0.222036    0.777964
 WU=    0.000000   12.500000
 Enter PrismC: JobTyp=21 DoJE=F Cont=F.
 Linear combination for Coulomb/exchange, wScrn=  0.000000
 CW=    0.222036    0.777964
 WU=    0.000000   12.500000
 Enter PrismC: JobTyp=21 DoJE=F Cont=F.
 Linear combination for Coulomb/exchange, wScrn=  0.000000
 CW=    0.222036    0.777964
 WU=    0.000000   12.500000
 Enter PrismC: JobTyp=21 DoJE=F Cont=F.
 Linear combination for Coulomb/exchange, wScrn=  0.000000
 CW=    0.222036    0.777964
 WU=    0.000000   12.500000
 Enter PrismC: JobTyp=21 DoJE=F Cont=F.
 Linear combination for Coulomb/exchange, wScrn=  0.000000
 CW=    0.222036    0.777964
 WU=    0.000000   12.500000
 Enter PrismC: JobTyp=21 DoJE=F Cont=F.
 Linear combination for Coulomb/exchange, wScrn=  0.000000
 CW=    0.222036    0.777964
 WU=    0.000000   12.500000
 Enter PrismC: JobTyp=21 DoJE=F Cont=F.
 Linear combination for Coulomb/exchange, wScrn=  0.000000
 CW=    0.222036    0.777964
 WU=    0.000000   12.500000
 Enter PrismC: JobTyp=21 DoJE=F Cont=F.
 Linear combination for Coulomb/exchange, wScrn=  0.000000
 CW=    0.222036    0.777964
 WU=    0.000000   12.500000
 Enter PrismC: JobTyp=21 DoJE=F Cont=F.
 Linear combination for Coulomb/exchange, wScrn=  0.000000
 CW=    0.222036    0.777964
 WU=    0.000000   12.500000
 Enter PrismC: JobTyp=21 DoJE=F Cont=F.
 Linear combination for Coulomb/exchange, wScrn=  0.000000
 CW=    0.222036    0.777964
 WU=    0.000000   12.500000
 Enter PrismC: JobTyp=21 DoJE=F Cont=F.
 Linear combination for Coulomb/exchange, wScrn=  0.000000
 CW=    0.222036    0.777964
 WU=    0.000000   12.500000
 Enter PrismC: JobTyp=21 DoJE=F Cont=F.
 Linear combination for Coulomb/exchange, wScrn=  0.000000
 CW=    0.222036    0.777964
 WU=    0.000000   12.500000
 Enter PrismC: JobTyp=21 DoJE=F Cont=F.
 Linear combination for Coulomb/exchange, wScrn=  0.000000
 CW=    0.222036    0.777964
 WU=    0.000000   12.500000
 Enter PrismC: JobTyp=21 DoJE=F Cont=F.
 Linear combination for Coulomb/exchange, wScrn=  0.000000
 CW=    0.222036    0.777964
 WU=    0.000000   12.500000
 Enter PrismC: JobTyp=21 DoJE=F Cont=F.
 Linear combination for Coulomb/exchange, wScrn=  0.000000
 CW=    0.222036    0.777964
 WU=    0.000000   12.500000
 Enter PrismC: JobTyp=21 DoJE=F Cont=F.
 Linear combination for Coulomb/exchange, wScrn=  0.000000
 CW=    0.222036    0.777964
 WU=    0.000000   12.500000
 Enter PrismC: JobTyp=21 DoJE=F Cont=F.
 Linear combination for Coulomb/exchange, wScrn=  0.000000
 CW=    0.222036    0.777964
 WU=    0.000000   12.500000
 Linear combination for Coulomb/exchange, wScrn=  0.000000
 CW=    0.222036    0.777964
 WU=    0.000000   12.500000
 Enter PrismC: JobTyp=21 DoJE=F Cont=F.
 Linear combination for Coulomb/exchange, wScrn=  0.000000
 CW=    0.222036    0.777964
 WU=    0.000000   12.500000
 PrismC was handed    13045885 working-precision words and  3339 shell-pairs
 Enter PrismC: JobTyp=21 DoJE=F Cont=F.
 Linear combination for Coulomb/exchange, wScrn=  0.000000
 CW=    0.222036    0.777964
 WU=    0.000000   12.500000
 Enter PrismC: JobTyp=21 DoJE=F Cont=F.
 Linear combination for Coulomb/exchange, wScrn=  0.000000
 CW=    0.222036    0.777964
 WU=    0.000000   12.500000
 Enter PrismC: JobTyp=21 DoJE=F Cont=F.
 Linear combination for Coulomb/exchange, wScrn=  0.000000
 CW=    0.222036    0.777964
 WU=    0.000000   12.500000
 Enter PrismC: JobTyp=21 DoJE=F Cont=F.
 Linear combination for Coulomb/exchange, wScrn=  0.000000
 CW=    0.222036    0.777964
 WU=    0.000000   12.500000
 Enter PrismC: JobTyp=21 DoJE=F Cont=F.
 Linear combination for Coulomb/exchange, wScrn=  0.000000
 CW=    0.222036    0.777964
 WU=    0.000000   12.500000
 Enter PrismC: JobTyp=21 DoJE=F Cont=F.
 Linear combination for Coulomb/exchange, wScrn=  0.000000
 CW=    0.222036    0.777964
 WU=    0.000000   12.500000
 PrismC was handed    13045885 working-precision words and  3339 shell-pairs
 Enter PrismC: JobTyp=21 DoJE=F Cont=F.
 Linear combination for Coulomb/exchange, wScrn=  0.000000
 CW=    0.222036    0.777964
 WU=    0.000000   12.500000
 PrismC was handed    13045885 working-precision words and  3339 shell-pairs
 PrismC was handed    13045885 working-precision words and  3339 shell-pairs
 PrismC was handed    13045885 working-precision words and  3339 shell-pairs
 PrismC was handed    13045885 working-precision words and  3339 shell-pairs
 PrismC was handed    13045885 working-precision words and  3339 shell-pairs
 PrismC was handed    13045885 working-precision words and  3339 shell-pairs
 Enter PrismC: JobTyp=21 DoJE=F Cont=F.
 Linear combination for Coulomb/exchange, wScrn=  0.000000
 CW=    0.222036    0.777964
 WU=    0.000000   12.500000
 PrismC was handed    13045885 working-precision words and  3339 shell-pairs
 PrismC was handed    13045885 working-precision words and  3339 shell-pairs
 PrismC was handed    13045885 working-precision words and  3339 shell-pairs
 PrismC was handed    13045885 working-precision words and  3339 shell-pairs
 PrismC was handed    13045885 working-precision words and  3339 shell-pairs
 PrismC was handed    13045885 working-precision words and  3339 shell-pairs
 PrismC was handed    13045885 working-precision words and  3339 shell-pairs
 PrismC was handed    13045885 working-precision words and  3339 shell-pairs
 PrismC was handed    13045885 working-precision words and  3339 shell-pairs
 PrismC was handed    13045885 working-precision words and  3339 shell-pairs
 PrismC was handed    13045885 working-precision words and  3339 shell-pairs
 PrismC was handed    13045885 working-precision words and  3339 shell-pairs
 PrismC was handed    13045885 working-precision words and  3339 shell-pairs
 PrismC was handed    13045885 working-precision words and  3339 shell-pairs
 PrismC was handed    13045885 working-precision words and  3339 shell-pairs
 PrismC was handed    13045885 working-precision words and  3339 shell-pairs
 PrismC was handed    13045885 working-precision words and  3339 shell-pairs
 PrismC was handed    13045885 working-precision words and  3339 shell-pairs
 PrismC was handed    13045885 working-precision words and  3339 shell-pairs
 PrismC was handed    13045885 working-precision words and  3339 shell-pairs
 PrismC was handed    13045885 working-precision words and  3339 shell-pairs
 PrismC was handed    13045885 working-precision words and  3339 shell-pairs
 IPart= 21 NShTot=      167809 NShNF=      167809 NShFF=           0 NBatch=        1880 AvBLen=        89.3
 IPart= 15 NShTot=      158399 NShNF=      158399 NShFF=           0 NBatch=        1657 AvBLen=        95.6
 IPart=  9 NShTot=      156778 NShNF=      156778 NShFF=           0 NBatch=        1613 AvBLen=        97.2
 IPart= 23 NShTot=      161614 NShNF=      161614 NShFF=           0 NBatch=        1569 AvBLen=       103.0
 IPart= 22 NShTot=      158733 NShNF=      158733 NShFF=           0 NBatch=        1793 AvBLen=        88.5
 IPart= 11 NShTot=      164872 NShNF=      164872 NShFF=           0 NBatch=        1637 AvBLen=       100.7
 IPart= 16 NShTot=      150652 NShNF=      150652 NShFF=           0 NBatch=        1546 AvBLen=        97.4
 IPart= 10 NShTot=      155843 NShNF=      155843 NShFF=           0 NBatch=        1542 AvBLen=       101.1
 IPart= 30 NShTot=      151896 NShNF=      151896 NShFF=           0 NBatch=        1749 AvBLen=        86.8
 IPart= 29 NShTot=      152702 NShNF=      152702 NShFF=           0 NBatch=        1818 AvBLen=        84.0
 IPart=  6 NShTot=      153517 NShNF=      153517 NShFF=           0 NBatch=        1720 AvBLen=        89.3
 IPart= 19 NShTot=      149861 NShNF=      149861 NShFF=           0 NBatch=        1564 AvBLen=        95.8
 IPart=  5 NShTot=      158414 NShNF=      158414 NShFF=           0 NBatch=        1779 AvBLen=        89.0
 IPart=  3 NShTot=      148280 NShNF=      148280 NShFF=           0 NBatch=        1687 AvBLen=        87.9
 IPart= 17 NShTot=      149856 NShNF=      149856 NShFF=           0 NBatch=        1625 AvBLen=        92.2
 IPart=  0 NShTot=      134887 NShNF=      134887 NShFF=           0 NBatch=        1312 AvBLen=       102.8
 IPart= 24 NShTot=      162018 NShNF=      162018 NShFF=           0 NBatch=        1465 AvBLen=       110.6
 IPart= 18 NShTot=      159192 NShNF=      159192 NShFF=           0 NBatch=        1476 AvBLen=       107.9
 IPart=  4 NShTot=      141816 NShNF=      141816 NShFF=           0 NBatch=        1512 AvBLen=        93.8
 IPart= 20 NShTot=      166414 NShNF=      166414 NShFF=           0 NBatch=        1617 AvBLen=       102.9
 IPart= 27 NShTot=      156426 NShNF=      156426 NShFF=           0 NBatch=        1758 AvBLen=        89.0
 IPart= 13 NShTot=      155417 NShNF=      155417 NShFF=           0 NBatch=        1624 AvBLen=        95.7
 IPart= 12 NShTot=      158618 NShNF=      158618 NShFF=           0 NBatch=        1632 AvBLen=        97.2
 IPart=  2 NShTot=      153610 NShNF=      153610 NShFF=           0 NBatch=        1616 AvBLen=        95.1
 IPart= 26 NShTot=      155781 NShNF=      155781 NShFF=           0 NBatch=        1671 AvBLen=        93.2
 IPart=  1 NShTot=      148562 NShNF=      148562 NShFF=           0 NBatch=        1512 AvBLen=        98.3
 IPart= 14 NShTot=      146914 NShNF=      146914 NShFF=           0 NBatch=        1763 AvBLen=        83.3
 IPart= 28 NShTot=      141397 NShNF=      141397 NShFF=           0 NBatch=        1277 AvBLen=       110.7
 IPart= 25 NShTot=      158359 NShNF=      158359 NShFF=           0 NBatch=        1708 AvBLen=        92.7
 IPart= 31 NShTot=      113642 NShNF=      113642 NShFF=           0 NBatch=        1211 AvBLen=        93.8
 IPart=  7 NShTot=      146929 NShNF=      146929 NShFF=           0 NBatch=        1359 AvBLen=       108.1
 IPart=  8 NShTot=      158038 NShNF=      158038 NShFF=           0 NBatch=        1659 AvBLen=        95.3
 CoulSu:  NxtVal=        6133761.
 ReadGW:  IGet=0 IStart=           1 Next=           1 LGW=           0.
 Remaining memory in FofDFT      399.87 Mw
 CkSvGd:  ISavGI=        -1 IRadAn=       5 IRASav=       5 ISavGd=        -1.
 CalDSu:  NPrtUS=  32 ThrOK=T IAlg=1 NPAlg=2 DoDPD=T LenP=       33930 LenD1P=             0.
 IPart=  0 IRanGd=          0 ScrnBf=T ScrnGd=T RCrit=4.00D+00 DoMicB=T.
 IPart= 31         5161 of         5694 points in       6 batches and       28 microbatches, Max-NSigAt=       8 Max-NSgAt2=       8
 IPart=  2         6942 of         8468 points in      11 batches and       31 microbatches, Max-NSigAt=       8 Max-NSgAt2=       8
 IPart= 17         5737 of         6498 points in       8 batches and       45 microbatches, Max-NSigAt=       8 Max-NSgAt2=       8
 IPart= 25         4462 of         4720 points in       4 batches and       18 microbatches, Max-NSigAt=       8 Max-NSgAt2=       8
 IPart= 30         5461 of         6112 points in       7 batches and       34 microbatches, Max-NSigAt=       8 Max-NSgAt2=       8
 IPart= 19         5240 of         5894 points in       7 batches and       37 microbatches, Max-NSigAt=       8 Max-NSgAt2=       8
 IPart= 16         5695 of         6322 points in       7 batches and       31 microbatches, Max-NSigAt=       8 Max-NSgAt2=       8
 IPart= 12         5663 of         6828 points in      10 batches and       49 microbatches, Max-NSigAt=       8 Max-NSgAt2=       8
 IPart= 26         4912 of         5460 points in       6 batches and       41 microbatches, Max-NSigAt=       8 Max-NSgAt2=       8
 IPart=  6         5528 of         5900 points in       6 batches and       42 microbatches, Max-NSigAt=       8 Max-NSgAt2=       8
 IPart= 24         5086 of         5524 points in       6 batches and       29 microbatches, Max-NSigAt=       8 Max-NSgAt2=       8
 IPart= 23         4370 of         4734 points in       5 batches and       30 microbatches, Max-NSigAt=       8 Max-NSgAt2=       8
 IPart=  0         4677 of         4704 points in       4 batches and       12 microbatches, Max-NSigAt=       8 Max-NSgAt2=       8
 IPart= 28         4900 of         5324 points in       5 batches and       15 microbatches, Max-NSigAt=       8 Max-NSgAt2=       8
 IPart=  4         5196 of         6038 points in       9 batches and       48 microbatches, Max-NSigAt=       8 Max-NSgAt2=       8
 IPart= 15         6677 of         7900 points in      11 batches and       50 microbatches, Max-NSigAt=       8 Max-NSgAt2=       8
 IPart=  5         4871 of         5324 points in       5 batches and       17 microbatches, Max-NSigAt=       8 Max-NSgAt2=       8
 IPart= 29         4292 of         4776 points in       6 batches and       49 microbatches, Max-NSigAt=       8 Max-NSgAt2=       8
 IPart=  1         4846 of         5090 points in       5 batches and       26 microbatches, Max-NSigAt=       8 Max-NSgAt2=       8
 IPart=  9         4356 of         4948 points in       6 batches and       55 microbatches, Max-NSigAt=       8 Max-NSgAt2=       8
 IPart= 27         4400 of         4400 points in       4 batches and       11 microbatches, Max-NSigAt=       8 Max-NSgAt2=       8
 IPart= 22         5582 of         5984 points in       6 batches and       38 microbatches, Max-NSigAt=       8 Max-NSgAt2=       8
 IPart=  8         6113 of         6330 points in       6 batches and       15 microbatches, Max-NSigAt=       8 Max-NSgAt2=       8
 IPart= 14         5007 of         5380 points in       6 batches and       39 microbatches, Max-NSigAt=       8 Max-NSgAt2=       8
 IPart=  7         5202 of         5524 points in       6 batches and       41 microbatches, Max-NSigAt=       8 Max-NSgAt2=       8
 IPart= 10         5475 of         5706 points in       6 batches and       31 microbatches, Max-NSigAt=       8 Max-NSgAt2=       8
 IPart=  3         5342 of         5524 points in       5 batches and       19 microbatches, Max-NSigAt=       8 Max-NSgAt2=       8
 IPart= 13         5916 of         6696 points in       8 batches and       43 microbatches, Max-NSigAt=       8 Max-NSgAt2=       8
 IPart= 20         5737 of         6326 points in       8 batches and       32 microbatches, Max-NSigAt=       8 Max-NSgAt2=       8
 IPart= 18         5081 of         5290 points in       5 batches and       16 microbatches, Max-NSigAt=       8 Max-NSgAt2=       8
 IPart= 11         5501 of         5928 points in       6 batches and       25 microbatches, Max-NSigAt=       8 Max-NSgAt2=       8
 IPart= 21         5452 of         5866 points in       6 batches and       36 microbatches, Max-NSigAt=       8 Max-NSgAt2=       8
 Forces at end of L703
 I=    0 X=   2.580108206418D-05 Y=  -1.358425086195D-05 Z=   4.110202993957D-06
 I=    1 X=  -7.487074708187D-03 Y=  -1.575414568645D-02 Z=  -4.860536333757D-03
 I=    2 X=   4.267318799230D-03 Y=   8.989866531894D-03 Z=  -7.362544677618D-04
 I=    3 X=   1.023132904119D-03 Y=   9.011974384969D-03 Z=   4.176288710209D-03
 I=    4 X=   6.340536010931D-03 Y=   6.489231852307D-03 Z=   4.176022298394D-03
 I=    5 X=   7.390116347687D-03 Y=   1.575743690375D-02 Z=   4.996402469341D-03
 I=    6 X=  -9.766113284146D-04 Y=  -8.994843626621D-03 Z=  -4.212603071598D-03
 I=    7 X=  -6.311756637368D-03 Y=  -6.489817710610D-03 Z=  -4.219167446065D-03
 I=    8 X=  -4.245661387999D-03 Y=  -9.009702649246D-03 Z=   6.798478412255D-04
 FrcOut:
 IF    =    45 IFX   =    69 IFXYZ =    93
 IFFX  =   117 IFFFX =   417 IFLen =    24
 IFFLen=   300 IFFFLn=     0 IEDerv=   417
 LEDerv=  1205 IFroze=  1904 ICStrt=108261
 FCEst1:  Generated internal coordinate force constants:
                1             2             3             4             5 
      1  0.584884D+00
      2 -0.128391D+00  0.375327D+00
      3 -0.405173D-01 -0.853557D-01  0.619211D+00
      4 -0.844710D-01  0.954771D-02 -0.794504D-02  0.623752D-01
      5  0.954767D-02 -0.688826D-01 -0.167396D-01 -0.428215D-02  0.553810D-01
      6  0.000000D+00  0.000000D+00 -0.355866D+00  0.000000D+00  0.000000D+00
      7 -0.317833D+00  0.369789D-02  0.981162D-01  0.149082D-01  0.131707D-03
      8 -0.117318D-01 -0.688487D-01  0.152823D-01  0.339813D-03  0.985963D-03
      9  0.901799D-01  0.879547D-02 -0.122377D+00  0.354592D-01  0.313266D-03
     10 -0.164442D+00  0.113443D+00 -0.501932D-01  0.632011D-02 -0.666843D-02
     11  0.128872D+00 -0.222239D+00  0.856816D-01 -0.687657D-02  0.957402D-02
     12 -0.502009D-01  0.754313D-01 -0.122375D+00 -0.221761D-01  0.276707D-01
     13 -0.228813D-01  0.375075D-02  0.118660D-02  0.867407D-03  0.127121D-02
     14  0.374755D-02 -0.167555D-01  0.249089D-02  0.127125D-02  0.294164D-02
     15  0.118457D-02  0.248875D-02 -0.238788D-01 -0.533819D-02 -0.112442D-01
     16 -0.177705D-02  0.493346D-03  0.111101D-02 -0.187469D-03  0.889986D-04
     17 -0.987460D-02  0.294535D-02  0.552672D-02  0.229746D-03 -0.109069D-03
     18 -0.422492D-02  0.117281D-02  0.264177D-02 -0.446413D-03  0.211929D-03
     19  0.565058D-02 -0.381140D-02  0.358047D-02 -0.296569D-03  0.140792D-03
     20  0.655460D-02 -0.448524D-02  0.435650D-02  0.000000D+00  0.000000D+00
     21  0.357879D-02 -0.253201D-02  0.264216D-02  0.446299D-03 -0.211874D-03
     22  0.869998D-03  0.127021D-02 -0.533878D-02  0.484074D-03 -0.229807D-03
     23  0.127589D-02  0.293892D-02 -0.112427D-01 -0.229885D-03  0.109135D-03
     24  0.000000D+00  0.000000D+00  0.209284D-05  0.000000D+00  0.000000D+00
                6             7             8             9            10 
      6  0.355866D+00
      7  0.000000D+00  0.311679D+00
      8  0.000000D+00 -0.166087D-02  0.553624D-01
      9  0.000000D+00 -0.104817D+00 -0.395039D-02  0.106440D+00
     10  0.000000D+00 -0.697815D-02  0.229245D-01 -0.165976D-01  0.159449D+00
     11  0.000000D+00 -0.266156D-02  0.955733D-02 -0.633054D-02 -0.125887D+00
     12  0.000000D+00  0.558901D-02 -0.168617D-01  0.132935D-01  0.632093D-01
     13  0.000000D+00 -0.177624D-02 -0.987173D-02 -0.422480D-02  0.565076D-02
     14  0.000000D+00  0.492803D-03  0.294305D-02  0.117214D-02 -0.381184D-02
     15  0.000000D+00  0.111151D-02  0.552968D-02  0.264374D-02  0.358158D-02
     16  0.000000D+00  0.726566D-04 -0.889783D-04  0.172814D-03  0.114864D-03
     17  0.000000D+00 -0.890413D-04  0.109044D-03 -0.211786D-03 -0.140767D-03
     18  0.000000D+00  0.173014D-03 -0.211881D-03  0.411516D-03  0.273522D-03
     19  0.000000D+00  0.114940D-03 -0.140760D-03  0.273386D-03  0.181711D-03
     20  0.000000D+00  0.000000D+00  0.000000D+00  0.000000D+00  0.000000D+00
     21  0.000000D+00 -0.172970D-03  0.211826D-03 -0.411411D-03 -0.273452D-03
     22  0.000000D+00 -0.187610D-03  0.229755D-03 -0.446233D-03 -0.296596D-03
     23  0.000000D+00  0.890955D-04 -0.109110D-03  0.211915D-03  0.140853D-03
     24  0.000000D+00  0.000000D+00  0.000000D+00  0.000000D+00  0.000000D+00
               11            12            13            14            15 
     11  0.207593D+00
     12 -0.837080D-01  0.106439D+00
     13  0.655329D-02  0.357870D-02  0.585101D+00
     14 -0.448476D-02 -0.253222D-02 -0.128443D+00  0.375287D+00
     15  0.435695D-02  0.264296D-02 -0.405924D-01 -0.852282D-01  0.619033D+00
     16  0.000000D+00 -0.172814D-03 -0.317998D+00  0.375228D-02  0.980946D-01
     17  0.000000D+00  0.211785D-03 -0.116848D-01 -0.688708D-01  0.152558D-01
     18  0.000000D+00 -0.411515D-03  0.901560D-01  0.877319D-02 -0.122353D+00
     19  0.000000D+00 -0.273385D-03 -0.164502D+00  0.113454D+00 -0.501950D-01
     20  0.000000D+00  0.000000D+00  0.128879D+00 -0.222207D+00  0.856764D-01
     21  0.000000D+00  0.411410D-03 -0.501940D-01  0.754212D-01 -0.122344D+00
     22  0.000000D+00  0.446231D-03 -0.844623D-01  0.953653D-02 -0.784662D-02
     23  0.000000D+00 -0.211914D-03  0.954472D-02 -0.688538D-01 -0.168351D-01
     24  0.000000D+00  0.000000D+00  0.899153D-04 -0.969568D-04 -0.355744D+00
               16            17            18            19            20 
     16  0.311846D+00
     17 -0.171638D-02  0.553759D-01
     18 -0.104793D+00 -0.391906D-02  0.106401D+00
     19 -0.696866D-02  0.229249D-01 -0.166022D-01  0.159499D+00
     20 -0.265959D-02  0.956346D-02 -0.633668D-02 -0.125900D+00  0.207561D+00
     21  0.558214D-02 -0.168632D-01  0.132981D-01  0.632123D-01 -0.836905D-01
     22  0.148972D-01  0.350915D-03  0.354638D-01  0.632148D-02 -0.687471D-02
     23  0.130364D-03  0.986125D-03  0.309794D-03 -0.666803D-02  0.956838D-02
     24  0.507514D-05  0.000000D+00  0.120819D-04  0.450259D-05 -0.570607D-05
               21            22            23            24 
     21  0.106421D+00
     22 -0.221791D-01  0.623737D-01
     23  0.276645D-01 -0.428301D-02  0.553604D-01
     24 -0.172892D-04 -0.993462D-04  0.103477D-03  0.355747D+00
 Quadrupole    =-1.56443353D-01 4.03461616D-01-2.47018263D-01
                 3.43079721D-01 1.07591165D-01 2.27771325D-01
 -------------------------------------------------------------------
 Center     Atomic                   Forces (Hartrees/Bohr)
 Number     Number              X              Y              Z
 -------------------------------------------------------------------
      1        6           0.007487075    0.015754146    0.004860536
      2        1          -0.004267319   -0.008989867    0.000736254
      3        1          -0.001023133   -0.009011974   -0.004176289
      4        1          -0.006340536   -0.006489232   -0.004176022
      5        6          -0.007390116   -0.015757437   -0.004996402
      6        1           0.000976611    0.008994844    0.004212603
      7        1           0.006311757    0.006489818    0.004219167
      8        1           0.004245661    0.009009703   -0.000679848
 -------------------------------------------------------------------
 Cartesian Forces:  Max     0.015757437 RMS     0.007227843
 From PutF, contents of force:
   1    0.7362544678D-03
   2    0.6754404333D-03
   3    0.6792794831D-03
   4    0.8694594963D-02
   5    0.8690706320D-02
   6   -0.1701608805D-01
   7    0.7330113482D-03
   8    0.6798590044D-03
   9    0.6781593305D-03
  10    0.8707359376D-02
  11    0.8690995252D-02
  12    0.1700657844D-01
  13    0.2674838826D-05
  14   -0.3024051372D-05
  15   -0.5907620324D-05
  16    0.1393109717D-04
  17   -0.1084455961D-04
  18   -0.1005478930D-01
 -----------------------------------------------------------------------------------------------
                       Internal Coordinate Forces (Hartree/Bohr or radian)
  Cent   Atom   N1       Length/X         N2         Alpha/Y        N3         Beta/Z          J
 -----------------------------------------------------------------------------------------------
      1  C 
      2  H        1   0.000736(     1)
      3  H        1   0.000675(     2)      2   0.008695(     8)
      4  H        1   0.000679(     3)      2   0.008691(     9)      3  -0.017016(    14)     0
      5  C        1  -0.010055(     4)      2  -0.000011(    10)      3   0.000014(    15)     0
      6  H        5   0.000733(     5)      1   0.000003(    11)      2  -0.000006(    16)     0
      7  H        5   0.000680(     6)      6   0.008707(    12)      1  -0.000003(    17)     0
      8  H        5   0.000678(     7)      6   0.008691(    13)      7   0.017007(    18)     0
 -----------------------------------------------------------------------------------------------
 Internal  Forces:  Max     0.017016088 RMS     0.007398442
 Force constants in Cartesian coordinates: 
                1             2             3             4             5 
      1  0.584884D+00
      2 -0.128391D+00  0.375327D+00
      3 -0.405173D-01 -0.853557D-01  0.619211D+00
      4 -0.844710D-01  0.954771D-02 -0.794504D-02  0.623752D-01
      5  0.954767D-02 -0.688826D-01 -0.167396D-01 -0.428215D-02  0.553810D-01
      6  0.000000D+00  0.000000D+00 -0.355866D+00  0.000000D+00  0.000000D+00
      7 -0.317833D+00  0.369789D-02  0.981162D-01  0.149082D-01  0.131707D-03
      8 -0.117318D-01 -0.688487D-01  0.152823D-01  0.339813D-03  0.985963D-03
      9  0.901799D-01  0.879547D-02 -0.122377D+00  0.354592D-01  0.313266D-03
     10 -0.164442D+00  0.113443D+00 -0.501932D-01  0.632011D-02 -0.666843D-02
     11  0.128872D+00 -0.222239D+00  0.856816D-01 -0.687657D-02  0.957402D-02
     12 -0.502009D-01  0.754313D-01 -0.122375D+00 -0.221761D-01  0.276707D-01
     13 -0.228813D-01  0.375075D-02  0.118660D-02  0.867407D-03  0.127121D-02
     14  0.374755D-02 -0.167555D-01  0.249089D-02  0.127125D-02  0.294164D-02
     15  0.118457D-02  0.248875D-02 -0.238788D-01 -0.533819D-02 -0.112442D-01
     16 -0.177705D-02  0.493346D-03  0.111101D-02 -0.187469D-03  0.889986D-04
     17 -0.987460D-02  0.294535D-02  0.552672D-02  0.229746D-03 -0.109069D-03
     18 -0.422492D-02  0.117281D-02  0.264177D-02 -0.446413D-03  0.211929D-03
     19  0.565058D-02 -0.381140D-02  0.358047D-02 -0.296569D-03  0.140792D-03
     20  0.655460D-02 -0.448524D-02  0.435650D-02  0.000000D+00  0.000000D+00
     21  0.357879D-02 -0.253201D-02  0.264216D-02  0.446299D-03 -0.211874D-03
     22  0.869998D-03  0.127021D-02 -0.533878D-02  0.484074D-03 -0.229807D-03
     23  0.127589D-02  0.293892D-02 -0.112427D-01 -0.229885D-03  0.109135D-03
     24  0.000000D+00  0.000000D+00  0.209284D-05  0.000000D+00  0.000000D+00
                6             7             8             9            10 
      6  0.355866D+00
      7  0.000000D+00  0.311679D+00
      8  0.000000D+00 -0.166087D-02  0.553624D-01
      9  0.000000D+00 -0.104817D+00 -0.395039D-02  0.106440D+00
     10  0.000000D+00 -0.697815D-02  0.229245D-01 -0.165976D-01  0.159449D+00
     11  0.000000D+00 -0.266156D-02  0.955733D-02 -0.633054D-02 -0.125887D+00
     12  0.000000D+00  0.558901D-02 -0.168617D-01  0.132935D-01  0.632093D-01
     13  0.000000D+00 -0.177624D-02 -0.987173D-02 -0.422480D-02  0.565076D-02
     14  0.000000D+00  0.492803D-03  0.294305D-02  0.117214D-02 -0.381184D-02
     15  0.000000D+00  0.111151D-02  0.552968D-02  0.264374D-02  0.358158D-02
     16  0.000000D+00  0.726566D-04 -0.889783D-04  0.172814D-03  0.114864D-03
     17  0.000000D+00 -0.890413D-04  0.109044D-03 -0.211786D-03 -0.140767D-03
     18  0.000000D+00  0.173014D-03 -0.211881D-03  0.411516D-03  0.273522D-03
     19  0.000000D+00  0.114940D-03 -0.140760D-03  0.273386D-03  0.181711D-03
     20  0.000000D+00  0.000000D+00  0.000000D+00  0.000000D+00  0.000000D+00
     21  0.000000D+00 -0.172970D-03  0.211826D-03 -0.411411D-03 -0.273452D-03
     22  0.000000D+00 -0.187610D-03  0.229755D-03 -0.446233D-03 -0.296596D-03
     23  0.000000D+00  0.890955D-04 -0.109110D-03  0.211915D-03  0.140853D-03
     24  0.000000D+00  0.000000D+00  0.000000D+00  0.000000D+00  0.000000D+00
               11            12            13            14            15 
     11  0.207593D+00
     12 -0.837080D-01  0.106439D+00
     13  0.655329D-02  0.357870D-02  0.585101D+00
     14 -0.448476D-02 -0.253222D-02 -0.128443D+00  0.375287D+00
     15  0.435695D-02  0.264296D-02 -0.405924D-01 -0.852282D-01  0.619033D+00
     16  0.000000D+00 -0.172814D-03 -0.317998D+00  0.375228D-02  0.980946D-01
     17  0.000000D+00  0.211785D-03 -0.116848D-01 -0.688708D-01  0.152558D-01
     18  0.000000D+00 -0.411515D-03  0.901560D-01  0.877319D-02 -0.122353D+00
     19  0.000000D+00 -0.273385D-03 -0.164502D+00  0.113454D+00 -0.501950D-01
     20  0.000000D+00  0.000000D+00  0.128879D+00 -0.222207D+00  0.856764D-01
     21  0.000000D+00  0.411410D-03 -0.501940D-01  0.754212D-01 -0.122344D+00
     22  0.000000D+00  0.446231D-03 -0.844623D-01  0.953653D-02 -0.784662D-02
     23  0.000000D+00 -0.211914D-03  0.954472D-02 -0.688538D-01 -0.168351D-01
     24  0.000000D+00  0.000000D+00  0.899153D-04 -0.969568D-04 -0.355744D+00
               16            17            18            19            20 
     16  0.311846D+00
     17 -0.171638D-02  0.553759D-01
[...]
 Red. masses --      1.0081                 1.0081                 1.1185
 Frc consts  --      5.8026                 5.8038                 7.2014
 IR Inten    --  0.2945E-01             0.1325E-03              1.122    
  Atom  AN      X      Y      Z        X      Y      Z        X      Y      Z
     1   6    -0.00  -0.00  -0.00    -0.00  -0.00  -0.00    -0.03   0.00  -0.02
     2   1    -0.00  -0.00   0.42    -0.00  -0.00   0.40    -0.00  -0.00   0.19
     3   1     0.36  -0.00  -0.21     0.35  -0.00  -0.20     0.08  -0.00  -0.05
     4   1    -0.36   0.05  -0.21    -0.34   0.04  -0.20     0.25  -0.03   0.14
     5   6    -0.00  -0.00  -0.00     0.00   0.00   0.00     0.08  -0.01   0.05
     6   1     0.34  -0.00  -0.20    -0.36   0.00   0.21    -0.27  -0.00   0.18
     7   1    -0.34   0.04  -0.20     0.36  -0.04   0.20    -0.65   0.08  -0.37
     8   1     0.00   0.00   0.40    -0.00  -0.00  -0.42     0.01  -0.00  -0.43
                     16                     17                     18
                      A                      A                      A
 Frequencies --   3305.7371              3306.5019              3306.6163
 Red. masses --      1.1186                 1.1184                 1.1184
 Frc consts  --      7.2020                 7.2040                 7.2048
 IR Inten    --   1.171                  5.527                  5.473    
  Atom  AN      X      Y      Z        X      Y      Z        X      Y      Z
     1   6    -0.05   0.00   0.08     0.08  -0.01   0.05    -0.02   0.00   0.03
     2   1    -0.01   0.00  -0.64     0.01  -0.00  -0.41    -0.00   0.00  -0.22
     3   1     0.59  -0.00  -0.33    -0.30  -0.00   0.18     0.23  -0.00  -0.13
     4   1     0.02  -0.00   0.03    -0.65   0.09  -0.38     0.04  -0.01   0.03
     5   6     0.02  -0.00  -0.03     0.03  -0.00   0.02    -0.05   0.00   0.08
     6   1    -0.24   0.00   0.14    -0.08  -0.00   0.05     0.59   0.00  -0.34
     7   1    -0.05   0.01  -0.03    -0.25   0.03  -0.14     0.04  -0.01   0.04
     8   1     0.01   0.00   0.21     0.00  -0.00  -0.19    -0.01  -0.00  -0.63

 -------------------
 - Thermochemistry -
 -------------------
 Temperature   298.150 Kelvin.  Pressure   1.00000 Atm.
 Atom     1 has atomic number  6 and mass  12.00000
 Atom     2 has atomic number  1 and mass   1.00783
 Atom     3 has atomic number  1 and mass   1.00783
 Atom     4 has atomic number  1 and mass   1.00783
 Atom     5 has atomic number  6 and mass  12.00000
 Atom     6 has atomic number  1 and mass   1.00783
 Atom     7 has atomic number  1 and mass   1.00783
 Atom     8 has atomic number  1 and mass   1.00783
 Molecular mass:    30.04695 amu.
 Principal axes and moments of inertia in atomic units:
                           1         2         3
     Eigenvalues --    25.05849 290.21239 290.22119
           X            0.06388  -0.16293   0.98457
           Y            0.99720  -0.02809  -0.06935
           Z            0.03895   0.98624   0.16068
 This molecule is an asymmetric top.
 Rotational symmetry number  1.
 Rotational temperatures (Kelvin)      3.45647     0.29845     0.29844
 Rotational constants (GHZ):          72.02115     6.21869     6.21850
    1 imaginary frequencies ignored.
 Zero-point vibrational energy     162929.1 (Joules/Mol)
                                   38.94100 (Kcal/Mol)
 Warning -- explicit consideration of   7 degrees of freedom as
           vibrations may cause significant error
 Vibrational temperatures:     40.28   305.57   327.43   380.80   398.90
          (Kelvin)            776.17   823.19  2026.63  2027.61  2031.22
                             2032.22  4497.10  4497.48  4756.09  4756.21
                             4757.31  4757.48
 
 Zero-point correction=                           0.062056 (Hartree/Particle)
 Thermal correction to Energy=                    0.068148
 Thermal correction to Enthalpy=                  0.069092
 Thermal correction to Gibbs Free Energy=         0.034592
 Sum of electronic and zero-point Energies=            -79.622807
 Sum of electronic and thermal Energies=               -79.616715
 Sum of electronic and thermal Enthalpies=             -79.615771
 Sum of electronic and thermal Free Energies=          -79.650271
 
                     E (Thermal)             CV                S
                      KCal/Mol        Cal/Mol-Kelvin    Cal/Mol-Kelvin
 Total                   42.763             17.683             72.610
 Electronic               0.000              0.000              0.000
 Translational            0.889              2.981             36.134
 Rotational               0.889              2.981             22.272
 Vibrational             40.986             11.722             14.204
 Vibration     1          0.593              1.984              5.967
 Vibration     2          0.643              1.822              2.023
 Vibration     3          0.651              1.799              1.898
 Vibration     4          0.671              1.738              1.631
 Vibration     5          0.678              1.716              1.551
 Vibration     6          0.895              1.163              0.566
 Vibration     7          0.928              1.092              0.500
                       Q            Log10(Q)             Ln(Q)
 Total Bot       0.122649D-15        -15.911334        -36.637202
 Total V=0       0.429125D+13         12.632584         29.087599
 Vib (Bot)       0.115203D-26        -26.938537        -62.028273
 Vib (Bot)    1  0.739632D+01          0.869016          2.000983
 Vib (Bot)    2  0.934270D+00         -0.029527         -0.067989
 Vib (Bot)    3  0.866367D+00         -0.062298         -0.143446
 Vib (Bot)    4  0.732173D+00         -0.135386         -0.311738
 Vib (Bot)    5  0.694472D+00         -0.158345         -0.364603
 Vib (Bot)    6  0.293839D+00         -0.531891         -1.224723
 Vib (Bot)    7  0.268428D+00         -0.571172         -1.315172
 Vib (V=0)       0.403071D+02          1.605382          3.696528
 Vib (V=0)    1  0.791320D+01          0.898352          2.068532
 Vib (V=0)    2  0.155965D+01          0.193028          0.444462
 Vib (V=0)    3  0.150030D+01          0.176177          0.405663
 Vib (V=0)    4  0.138661D+01          0.141954          0.326862
 Vib (V=0)    5  0.135574D+01          0.132177          0.304348
 Vib (V=0)    6  0.107995D+01          0.033403          0.076914
 Vib (V=0)    7  0.106750D+01          0.028367          0.065317
 Electronic      0.100000D+01          0.000000          0.000000
 Translational   0.647375D+07          6.811156         15.683266
 Rotational      0.164455D+05          4.216046          9.707806
 -------------------------------------------------------------------
 Center     Atomic                   Forces (Hartrees/Bohr)
 Number     Number              X              Y              Z
 -------------------------------------------------------------------
      1        6          -0.000338549   -0.007084179   -0.000330490
      2        1          -0.000049037    0.000013752    0.000007958
      3        1           0.000014709    0.000017764   -0.000002100
      4        1          -0.000075175   -0.000004021    0.000039526
      5        6           0.000557266    0.007075955    0.000387238
      6        1          -0.000043247   -0.000013749   -0.000057098
      7        1           0.000012445   -0.000023871    0.000000210
      8        1          -0.000078413    0.000018349   -0.000045244
 -------------------------------------------------------------------
 Cartesian Forces:  Max     0.007084179 RMS     0.002051057
 -----------------------------------------------------------------------------------------------
                       Internal Coordinate Forces (Hartree/Bohr or radian)
  Cent   Atom   N1       Length/X         N2         Alpha/Y        N3         Beta/Z          J
 -----------------------------------------------------------------------------------------------
      1  C 
      2  H        1   0.000008(     1)
      3  H        1   0.000014(     2)      2  -0.000011(     8)
      4  H        1   0.000044(     3)      2  -0.000145(     9)      3  -0.000025(    14)     0
      5  C        1  -0.007077(     4)      2   0.000013(    10)      3   0.000043(    15)     0
      6  H        5   0.000008(     5)      1   0.000022(    11)      2  -0.000030(    16)     0
      7  H        5   0.000013(     6)      6   0.000009(    12)      1   0.000074(    17)     0
      8  H        5   0.000046(     7)      6  -0.000159(    13)      7   0.000034(    18)     0
 -----------------------------------------------------------------------------------------------
 Internal  Forces:  Max     0.007076630 RMS     0.001669005

 GradGradGradGradGradGradGradGradGradGradGradGradGradGradGradGradGradGrad
 Berny optimization.
 Search for a local minimum.
 Step number   1 out of a maximum of    2
 All quantities printed in internal units (Hartrees-Bohrs-Radians)
 Second derivative matrix not updated -- analytic derivatives used.
 The second derivative matrix:
                          R1        R2        R3        A2        A3
           R1           0.37228
           R2           0.00007   0.37235
           R3           0.00006   0.00008   0.37248
           A2           0.01592   0.00026  -0.01581   0.18821
           A3           0.01590  -0.01583   0.00017   0.09312   0.18829
           D3           0.00019  -0.00178  -0.00248   0.01132   0.00998
           R21          0.00005  -0.00007   0.00005   0.00001   0.00002
           R22          0.00005   0.00005  -0.00008   0.00002   0.00001
           R23         -0.00007   0.00005   0.00005  -0.00005  -0.00004
           A22          0.00002  -0.00004   0.00001  -0.00024  -0.00042
           A23          0.00001  -0.00004   0.00002   0.00028  -0.00023
           D23          0.00012  -0.00015  -0.00015   0.00016   0.00019
           ANG2         0.00018  -0.00031   0.00017  -0.00012   0.00039
           DH3          0.00028   0.00001  -0.00027   0.00039   0.00010
           DH2         -0.00000  -0.00000  -0.00000   0.00006  -0.00006
           DH1         -0.00000  -0.00064   0.00063  -0.00110   0.00111
           ANG1        -0.00073   0.00036   0.00037  -0.00078  -0.00077
           BB          -0.00024  -0.00025  -0.00024  -0.00021  -0.00020
                          D3        R21       R22       R23       A22
           D3           0.01559
           R21          0.00016   0.37243
           R22         -0.00012   0.00008   0.37231
           R23          0.00016   0.00005   0.00008   0.37239
           A22         -0.00010   0.01595   0.00017  -0.01579   0.18846
           A23          0.00023   0.01582  -0.01575   0.00017   0.09312
           D23          0.00041  -0.00017   0.00173   0.00237  -0.01117
           ANG2        -0.00072  -0.00081   0.00037   0.00032  -0.00077
           DH3          0.00131  -0.00006  -0.00073   0.00067  -0.00113
           DH2          0.00001  -0.00018   0.00011  -0.00001  -0.00021
           DH1         -0.00648  -0.00025   0.00024   0.00006  -0.00008
           ANG1        -0.00369   0.00006   0.00007  -0.00031   0.00040
           BB           0.00252  -0.00025  -0.00025  -0.00024  -0.00021
                          A23       D23      ANG2       DH3       DH2
           A23          0.18808
           D23         -0.00998   0.01638
           ANG2        -0.00064   0.00452   0.01409
           DH3          0.00106   0.00739   0.00065   0.01415
           DH2          0.00007  -0.00008   0.00010  -0.00032   0.00039
           DH1         -0.00051  -0.00005   0.00159  -0.00123  -0.00029
           ANG1        -0.00012  -0.00037  -0.00003  -0.00077  -0.00020
           BB          -0.00019  -0.00249  -0.00001   0.00008   0.00002
                          DH1      ANG1       BB
           DH1          0.01518
           ANG1        -0.00040   0.01539
           BB           0.00027  -0.00058  -0.00745
 ITU=  0
     Eigenvalues ---    0.00036   0.00647   0.00737   0.01287   0.01575
     Eigenvalues ---    0.02228   0.02423   0.09408   0.09444   0.27423
     Eigenvalues ---    0.27484   0.37251   0.37256   0.37315   0.37330
     Eigenvalues ---    0.37994   0.380061000.00000
 Angle between quadratic step and forces=  80.67 degrees.
 Linear search not attempted -- first point.
 Variable       Old X    -DE/DX   Delta X   Delta X   Delta X     New X
                                 (Linear)    (Quad)   (Total)
    R1        2.03732   0.00001   0.00000   0.00004   0.00004   2.03736
    R2        2.03737   0.00001   0.00000  -0.00001  -0.00001   2.03736
    R3        2.03724   0.00004   0.00000   0.00014   0.00014   2.03737
    A2        2.09136  -0.00001   0.00000   0.00054   0.00054   2.09190
    A3        2.09252  -0.00014   0.00000  -0.00102  -0.00102   2.09150
    D3        3.27925  -0.00003   0.00000  -0.00108  -0.00108   3.27817
   R21        2.03732   0.00001   0.00000   0.00002   0.00002   2.03734
   R22        2.03737   0.00001   0.00000   0.00002   0.00002   2.03739
   R23        2.03723   0.00005   0.00000   0.00014   0.00014   2.03737
   A22        2.09103   0.00001   0.00000   0.00051   0.00051   2.09154
   A23        2.09284  -0.00016   0.00000  -0.00115  -0.00115   2.09170
   D23        3.00426   0.00003   0.00000  -0.00121  -0.00121   3.00306
   ANG2       1.60894   0.00002   0.00000   0.00213   0.00213   1.61107
   DH3        1.63224   0.00007   0.00000   0.00445   0.00445   1.63669
   DH2        1.03676  -0.00003   0.00000  -0.07389  -0.07389   0.96287
   DH1        1.63482   0.00004   0.00000   0.00119   0.00119   1.63601
   ANG1       1.60966   0.00001   0.00000  -0.00019  -0.00019   1.60947
    BB        6.04712  -0.00708   0.00000   0.00000   0.00000   6.04712
         Item               Value     Threshold  Converged?
 Maximum Force            0.000159     0.000450     YES
 RMS     Force            0.000060     0.000300     YES
 Maximum Displacement     0.073888     0.001800     NO 
 RMS     Displacement     0.017465     0.001200     NO 
 Predicted change in Energy=-1.491433D-06
 GradGradGradGradGradGradGradGradGradGradGradGradGradGradGradGradGradGrad


 Test job not archived.
 1\1\GINC-NODE-6-7\Freq\UwB97XD\Aug-CC-pVTZ\C2H6\CAVALLOTTI\27-May-2023
 \1\\#N Geom=AllCheck Guess=TCheck SCRF=Check Test GenChk UwB97XD/Aug-C
 C-pVTZ Freq\\geom 0\\0,1\C\H,1,R1\H,1,R2,2,A2\H,1,R3,2,A3,3,D3,0\C,1,B
 B,2,ANG1,3,DH1,0\H,5,R21,1,ANG2,2,DH2,0\H,5,R22,6,A22,1,DH3,0\H,5,R23,
 6,A23,7,D23,0\\R1=1.07810548\R2=1.07812815\R3=1.0780601\A2=119.8260625
 2\A3=119.89252101\D3=187.88717122\R21=1.07810395\R22=1.07812924\R23=1.
 07805405\A22=119.80735238\A23=119.9111365\D23=172.13156361\ANG2=92.185
 48587\DH3=93.52055521\DH2=59.4019179\DH1=93.66855864\ANG1=92.22670836\
 BB=3.2\\Version=EM64L-G09RevD.01\HF=-79.684863\S2=0.889092\S2-1=0.\S2A
 =0.045467\RMSD=1.388e-09\RMSF=2.051e-03\ZeroPoint=0.0620564\Thermal=0.
 0681477\Dipole=0.0004082,0.0000407,0.0003231\DipoleDeriv=0.0083042,-0.
 0272916,-0.0009604,-0.0277688,-0.3869578,-0.0162842,-0.0011205,-0.0163
 412,0.0099292,0.0423689,0.0062421,-0.0005125,0.0063795,0.1304442,-0.00
 6675,-0.0000753,-0.0002467,-0.0494024,-0.0270946,0.0023651,0.0391898,-
 0.0025819,0.1305331,0.008762,0.038732,0.0055887,0.0197105,-0.0235806,0
 .0186212,-0.0377101,0.0238669,0.1260613,0.0141164,-0.0375398,0.010949,
 0.0197453,0.0085509,-0.0245591,-0.0005486,-0.0244412,-0.3879545,-0.012
 6902,-0.0007784,-0.0132202,0.0103238,-0.0258577,0.0015678,0.0393977,-0
 .0034905,0.1305761,0.0081437,0.0392694,0.0050395,0.0187895,-0.0250747,
 0.0174552,-0.037672,0.0225101,0.126845,0.012783,-0.0373515,0.009771,0.
 0201068,0.0423836,0.0055993,-0.0011839,0.0055259,0.1304527,-0.0081557,
 -0.0011359,-0.0015402,-0.0492027\Polar=30.9433234,1.2918907,51.3043257
 ,0.0514191,0.7891909,30.8892118\PG=C01 [X(C2H6)]\NImag=1\\0.61865991,-
 0.04136408,0.01891478,-0.00146001,-0.02415023,0.62062491,-0.05435433,0
 .00313510,-0.00010903,0.04531149,0.00312871,-0.00869968,-0.00149626,-0
 .00277548,0.00527091,0.00012247,0.00145318,-0.35884872,-0.00012321,-0.
 00134108,0.37227646,-0.28352747,0.00289320,0.13154233,0.00464147,0.000
 25260,-0.00382418,0.29134791,0.00025716,-0.00862618,0.00348522,0.00033
 493,0.00234629,0.00007386,-0.00258358,0.00512374,0.13136805,0.00201768
 ,-0.12967282,0.02373949,0.00025078,-0.00681528,-0.14116811,-0.00172758
 ,0.12634000,-0.27864875,0.03449974,-0.13001774,0.00453793,-0.00053068,
 0.00381079,-0.01254696,0.00280296,-0.01375156,0.28650820,0.03711180,-0
 .01324812,0.02151060,-0.00060632,0.00250196,-0.00042087,-0.00072585,0.
 00255879,-0.00034336,-0.03639865,0.00963607,-0.13007651,0.02000050,-0.
 12999123,-0.02344464,0.00349476,-0.00679667,0.01356056,-0.00219229,0.0
 1018855,0.13980005,-0.02108880,0.12663932,-0.00236830,0.00110908,0.000
 04638,0.00004613,-0.00008410,0.00002286,0.00006476,-0.00088090,-0.0000
 7172,0.00012400,0.00069505,0.00004592,0.61907018,0.00113159,0.01587871
 ,0.00083693,-0.00009956,-0.00144328,0.00036314,0.00025815,-0.00139586,
 -0.00026477,-0.00045933,-0.00140833,-0.00026440,-0.03722883,0.01808919
 ,0.00006101,0.00081116,-0.00235889,-0.00007082,-0.00097237,0.00009753,
 0.00001133,0.00039169,0.00007309,0.00003917,0.00038955,0.00007616,-0.0
 0157552,-0.01952147,0.62113415,0.00006849,0.00026621,0.00001552,-0.000
 04976,-0.00010026,-0.00005584,0.00003363,0.00005200,-0.00007584,0.0000
 3602,-0.00004658,0.00000199,-0.28074665,0.00185960,0.13317600,0.288372
 83,-0.00087473,-0.00138730,0.00039890,-0.00004522,0.00016336,-0.000097
 49,0.00004981,-0.00028408,-0.00004401,0.00006207,0.00011334,0.00010640
 ,-0.00074111,-0.00852651,0.00359661,-0.00153572,0.00503525,-0.00007421
 ,-0.00025565,0.00007265,-0.00004430,0.00000461,0.00000849,-0.00007417,
 -0.00004032,-0.00006308,0.00001026,0.00010426,-0.00005859,0.13305193,0
 .00208156,-0.13262157,-0.14292050,-0.00186537,0.12943506,0.00012461,-0
 .00045899,0.00003734,-0.00002953,0.00011778,0.00004182,0.00003743,0.00
 006314,0.00000765,0.00001629,-0.00009464,0.00006779,-0.28178037,0.0317
 5708,-0.12868836,-0.01256448,0.00257299,-0.01352903,0.28986139,0.00070
 000,-0.00143619,0.00038196,0.00006866,0.00011336,-0.00009761,-0.000047
 75,0.00011688,0.00010718,-0.00009432,-0.00027016,-0.00005322,0.0343614
 7,-0.01252812,0.01934562,-0.00074185,0.00255813,-0.00038144,-0.0334965
 7,0.00890643,0.00003355,-0.00025099,0.00006932,0.00004768,-0.00000757,
 0.00000541,0.00000611,0.00010751,-0.00005674,0.00006795,-0.00005071,-0
 .00006435,-0.12873354,0.01786535,-0.12747675,0.01381941,-0.00207221,0.
 01020507,0.13837370,-0.01885558,0.12396949,0.00004585,-0.00008026,-0.0
 0005480,-0.00010340,-0.00000857,0.00000529,-0.00005077,-0.00004571,-0.
 00004796,-0.00002673,0.00006519,0.00004484,-0.05440976,0.00278131,-0.0
 0295281,0.00484992,0.00051191,0.02358001,0.00433465,-0.00074964,-0.023
 61486,0.04536024,-0.00009045,-0.00139602,-0.00096712,-0.00001211,-0.00
 025293,0.00006687,-0.00009659,0.00016042,0.00000408,0.00011822,0.00011
 645,-0.00000295,0.00276934,-0.00866579,-0.00404080,0.00024660,0.002327
 82,0.00035234,-0.00046079,0.00253967,0.00326421,-0.00247421,0.00517039
 ,0.00002565,0.00037435,0.00010479,0.00000483,0.00006712,0.00007278,-0.
 00005387,-0.00009810,0.00000629,0.00004109,-0.00010066,0.00000681,-0.0
 0278633,-0.00109634,-0.35892372,-0.00396074,-0.00002283,-0.00697802,0.
 00368908,-0.00044691,-0.00665145,0.00304029,0.00132337,0.37236252\\0.0
 0033855,0.00708418,0.00033049,0.00004904,-0.00001375,-0.00000796,-0.00
 001471,-0.00001776,0.00000210,0.00007517,0.00000402,-0.00003953,-0.000
 55727,-0.00707595,-0.00038724,0.00004325,0.00001375,0.00005710,-0.0000
 1245,0.00002387,-0.00000021,0.00007841,-0.00001835,0.00004524\\\@


 THERE ARE PEOPLE SO ADDICTED TO EXAGERATING THEY
 CAN'T TELL THE TRUTH WITHOUT LYING. -- FORTUNE COOKIE
 Job cpu time:       0 days  0 hours 50 minutes 57.4 seconds.
 File lengths (MBytes):  RWF=    106 Int=      0 D2E=      0 Chk=      7 Scr=      1
 Normal termination of Gaussian 09 at Sat May 27 08:55:26 2023.
