
 Working directory              : /scratch/cc/140717/molpro.2e5BIPDHr8/
 Global scratch directory       : /scratch/cc/140717/molpro.2e5BIPDHr8/
 Wavefunction directory         : /home/chimica2/cavallotti/wfu/
 Main file repository           : /scratch/cc/140717/molpro.2e5BIPDHr8/

 id        : polimi

 Nodes     nprocs
 node-6-10    4
 GA implementation: MPI file
 GA implementation (serial work in mppx): MPI file

 Using customized tuning parameters: mindgm=1; mindgv=20; mindgc=4; mindgr=1; noblas=0; minvec=7
 default implementation of scratch files=sf  


 Variables initialized (1015), CPU time= 0.02 sec
  memory,         400 ,m
   nosym
  geometry={angstrom
   C1
   H2   C1   R1
   H3   C1   R2   H2   A2
   H4   C1   R3   H2   A3   H3   D3
    H21         1 rts    2 aabs1    3 babs1
  }
  BABS1                          =    89.768199999999993
  AABS1                          =    89.792900000000003
  R3                             =    1.0782000000000000
  A2                             =    119.97210000000000
  A3                             =    120.02070000000001
  D3                             =    179.80760000000001
  R2                             =    1.0782000000000000
  R1                             =    1.0782000000000000
  RTS                            =    10.000000000000000
 
   basis=cc-pvdz
   {multi;closed, 4;occ, 6;wf, 10,1,0,;state,1;maxiter,40}
   {RS2,SHIFT=0.2;ORBITAL,IGNORE_ERROR;STATE,1}
   CBSen = energy
  put,molden,molpro.molden
 Commands initialized (834), CPU time= 0.02 sec, 672 directives.
 Default parameters read. Elapsed time= 0.23 sec

 Checking input...
 Passed
1


                                         ***  PROGRAM SYSTEM MOLPRO  ***
                                       Copyright, TTI GmbH Stuttgart, 2015
                                    Version 2022.2 linked Thu Sep 29 12:37:28 2022


 **********************************************************************************************************************************
 LABEL *                                                                                 
  64 bit mpp version                                                                     DATE: 03-Jun-23          TIME: 09:00:30  
 **********************************************************************************************************************************

 SHA1:             51306cdc306ce2a111a2867affebcb289530e0a7
 **********************************************************************************************************************************

 Memory per process:       400 MW
 Total memory per node:   1600 MW

 GA preallocation disabled
 GA check disabled

 Variable memory set to 400.0 MW

 ZSYMEL=NOSYM

 SETTING BABS1          =        89.76820000                                  
 SETTING AABS1          =        89.79290000                                  
 SETTING R3             =         1.07820000                                  
 SETTING A2             =       119.97210000                                  
 SETTING A3             =       120.02070000                                  
 SETTING D3             =       179.80760000                                  
 SETTING R2             =         1.07820000                                  
 SETTING R1             =         1.07820000                                  
 SETTING RTS            =        10.00000000                                  
 SETTING BASIS          =    CC-PVDZ


 Recomputing integrals since basis changed


 Using spherical harmonics

 Library entry C      S cc-pVDZ              selected for orbital group  1
 Library entry C      P cc-pVDZ              selected for orbital group  1
 Library entry C      D cc-pVDZ              selected for orbital group  1
 Library entry H      S cc-pVDZ              selected for orbital group  2
 Library entry H      P cc-pVDZ              selected for orbital group  2


 PROGRAM * SEWARD (Integral evaluation for generally contracted gaussian basis sets)     Author: Roland Lindh, 1990

 Geometry written to block  1 of record 700

 Orientation using atomic masses  
 Molecule type: Asymmetric top
 Rotational constants:       5.2526317      5.2525769    143.7691796 GHz  (calculated with average atomic masses)

 Point group  C1  



 ATOMIC COORDINATES

 NR  ATOM    CHARGE       X              Y              Z

   1  C1      6.00    0.000025310    0.000038731   -1.187656045
   2  H2      1.00    1.248028602    1.610581910   -1.180190623
   3  H3      1.00    0.771694816   -1.885678987   -1.184171118
   4  H4      1.00   -2.018853158    0.274851023   -1.192678033
   5  H21     1.00   -0.001171864   -0.000215477   17.709605162

 Bond lengths in Bohr (Angstrom)

 1-2  2.037502708  1-3  2.037502708  1-4  2.037502708
     ( 1.078200000)     ( 1.078200000)     ( 1.078200000)

 Bond angles

  2-1-3  119.97210000   2-1-4  120.02070000   3-1-4  120.00692020

 NUCLEAR CHARGE:                   10
 NUMBER OF PRIMITIVE AOS:          55
 NUMBER OF SYMMETRY AOS:           54
 NUMBER OF CONTRACTIONS:           34   (   34A   )
 NUMBER OF INNER CORE ORBITALS:     0   (    0A   )
 NUMBER OF OUTER CORE ORBITALS:     1   (    1A   )
 NUMBER OF VALENCE ORBITALS:        8   (    8A   )


 NUCLEAR REPULSION ENERGY   10.15979070


 Eigenvalues of metric

         1 0.150E-01 0.352E-01 0.352E-01 0.421E-01 0.542E-01 0.542E-01 0.963E-01 0.122E+00


 Contracted 2-electron integrals neglected if value below      1.0D-11
 AO integral compression algorithm  1   Integral accuracy      1.0D-11

     1.049 MB (compressed) written to integral file (100.0%)

     Node minimum: 0.262 MB, node maximum: 0.262 MB


 NUMBER OF SORTED TWO-ELECTRON INTEGRALS:      44104.     BUFFER LENGTH:  32768
 NUMBER OF SEGMENTS:   1  SEGMENT LENGTH:      44104      RECORD LENGTH: 524288

 Memory used in sort:       0.60 MW

 SORT1 READ      135751. AND WROTE       24026. INTEGRALS IN      1 RECORDS. CPU TIME:     0.01 SEC, REAL TIME:     0.02 SEC
 SORT2 READ       96564. AND WROTE      177310. INTEGRALS IN      4 RECORDS. CPU TIME:     0.01 SEC, REAL TIME:     0.02 SEC

 Node minimum:       44104.  Node maximum:       44551. integrals

 OPERATOR DM      FOR CENTER  0  COORDINATES:    0.000000    0.000000    0.000000


 **********************************************************************************************************************************
 DATASETS  * FILE   NREC   LENGTH (MB)   RECORD NAMES
              1      18       28.65       500      610      700      900      950      970     1000      129      960     1100   
                                          VAR    BASINP    GEOM    SYMINP    ZMAT    AOBASIS   BASIS     P2S    ABASIS      S 
                                         1400     1410     1200     1210     1080     1600     1650     1700   
                                           T        V       H0       H01     AOSYM     SMH    MOLCAS    OPER   

 PROGRAMS   *        TOTAL       INT
 CPU TIMES  *         0.54      0.25
 REAL TIME  *         1.03 SEC
 DISK USED  *        28.95 MB (local),      132.34 MB (total)
 GA USED    *         0.00 MB       (max)       0.00 MB       (current)
 **********************************************************************************************************************************

 PROGRAM * MULTI (Direct Multiconfiguration SCF)       Authors: P.J. Knowles, H.-J. Werner (1984)
                                                                D.A. Kreplin, P.J. Knowles, H.-J. Werner (2019)

 Number of closed-shell orbitals:   4 (    4)
 Number of active  orbitals:        2 (    2)
 Number of external orbitals:      28 (   28)

 State symmetry 1

 Number of active electrons:   2    Spin symmetry=Singlet   Space symmetry=1
 Number of states:             1
 Number of CSFs:               3   (4 determinants, 4 intermediate states)

 Orbital guess generated from atomic densities. Full valence occupancy:    9

 Wavefunction dump at record             2140.2

 Convergence thresholds  0.10E-04 (gradient)  0.10E-05 (energy)
 
 Number of orbital rotations:  176  ( 8 closed/active, 112 closed/virtual, 0 active/active, 56 active/virtual )
 Total number of variables:    180
 
 Second-order MCSCF: L-BFGS accelerated
 
 ITER  MIC  NCI  NEG     ENERGY(VAR)    ENERGY(PROJ) ENERGY CHANGE       GRAD(0)  GRAD(ORB)   GRAD(CI)      STEP      TIME
   1    5    4    0    -40.04367575     -40.05894806   -0.01527231    0.14523625 0.00000002 0.00000000  0.13E+00      0.20
   2    3    3    0    -40.05891045     -40.05891183   -0.00000138    0.00171194 0.00000087 0.00000000  0.91E-03      0.34
   3    3    3    0    -40.05891183     -40.05891183   -0.00000000    0.00000050 0.00000000 0.00000000  0.27E-06      0.50

 CONVERGENCE REACHED!  Final gradient:    0.00000000 ( 0.62E-11)
                       Final energy:    -40.05891183
 
 First order charge density matrix for state 1.1 saved on record 2140.2 (density set 1)
 
 Results for state 1.1
 =====================
 !MCSCF STATE 1.1 Energy                       -40.058911829888
 Nuclear energy                                 10.15979070
 Kinetic energy                                 39.99628745
 One electron energy                           -73.03031308
 Two electron energy                            22.81161056
 Virial ratio                                    2.00156575
 
 !MCSCF STATE 1.1 Dipole moment                  0.00002783    -0.00001411     0.00080758
 Dipole moment /Debye                            0.00007074    -0.00003586     0.00205265
 
 No non-zero expectation values
 
 
 Natural orbital dump at molpro section 2140.2 (Orbital set 2)


 **********************************************************************************************************************************
 DATASETS  * FILE   NREC   LENGTH (MB)   RECORD NAMES
              1      19       28.95       500      610      700      900      950      970     1000      129      960     1100   
                                          VAR    BASINP    GEOM    SYMINP    ZMAT    AOBASIS   BASIS     P2S    ABASIS      S 
                                         1400     1410     1200     1210     1080     1600     1650     1700     1380   
                                           T        V       H0       H01     AOSYM     SMH    MOLCAS    OPER     JKOP   

              2       4        0.43       700     1000      520     2140   
                                         GEOM     BASIS   MCVARS    MCSCF   

 PROGRAMS   *        TOTAL     MULTI       INT
 CPU TIMES  *         0.82      0.28      0.25
 REAL TIME  *         1.62 SEC
 DISK USED  *        29.42 MB (local),      134.20 MB (total)
 SF USED    *         1.05 MB
 GA USED    *         0.00 MB       (max)       0.00 MB       (current)
 **********************************************************************************************************************************


 PROGRAM * RS2 (Multireference RS Perturbation Theory)     Authors: H.-J. Werner (1993), P. Celani (1998)


 Level shift= 0.20

 Convergence thresholds:  THRVAR = 1.00D-08  THRDEN = 1.00D-06

 Number of optimized states: 1  Roots:    1
 Number of reference states: 1  Roots:    1

 Reference symmetry:                   1   Singlet 
 Number of electrons:                 10
 Maximum number of shells:             4
 Maximum number of spin couplings:     5

 Reference space:        3 conf        3 CSFs
 N elec internal:       15 conf       15 CSFs
 N-1 el internal:       23 conf       32 CSFs
 N-2 el internal:       25 conf       52 CSFs

 Number of electrons in valence space:                      8
 Maximum number of open shell orbitals in reference space:  2
 Maximum number of open shell orbitals in internal spaces:  6


 Number of core orbitals:           1 (   1 )
 Number of closed-shell orbitals:   3 (   3 )
 Number of active  orbitals:        2 (   2 )
 Number of external orbitals:      28 (  28 )

 Molecular orbitals read from record     2140.2  Type=MCSCF/NATURAL (state 1.1)

 Integral transformation finished. Total CPU:   0.00 sec, npass=  1  Memory used:   0.11 MW


 Number of p-space configurations:   3

 Reference wavefunction optimized for reference space (refopt=1)

 State     Reference Energy 
     1       -40.05891183

 Number of blocks in overlap matrix:     2   Smallest eigenvalue:  0.10D+01
 Number of N-2 electron functions:      22
 Number of N-1 electron functions:      32

 Number of internal configurations:                   15
 Number of singly external configurations:           896
 Number of doubly external configurations:          8680
 Total number of contracted configurations:         9591
 Total number of uncontracted configurations:      21351

 Weight factors for SA-density in H0:    1.000000

 FIMAX=  0.41D-01  FXMAX=  0.49D-11  DIAG=  F  T  NOREF=1  NOINT=0  IHPPD=2

 Nuclear energy:                      10.15979070
 Core energy:                        -35.40917843
 Zeroth-order valence energy:         -4.36775006
 Zeroth-order total energy:          -29.61713780
 First-order energy:                 -10.44177403

 Using uncontracted singles

 Diagonal Coupling coefficients finished.               Storage:     883 words, CPU-Time:      0.00 seconds.
 Energy denominators for pairs finished in 0 passes.    Storage:    2295 words, CPU-time:      0.00 seconds.

 A level shift of 0.20 is applied.

  ITER. STATE  ROOT     SQ.NORM     CORR.ENERGY   TOTAL ENERGY   ENERGY CHANGE       DEN1      VAR(S)    VAR(P)      TIME
    1     1     1     1.00516776    -0.00103355   -40.05994538    -0.00103355    -0.12589212  0.52D-02  0.36D-01     0.03
    2     1     1     1.04126301    -0.13391534   -40.19282717    -0.13288179     0.00013312  0.16D-04  0.70D-05     0.04
    3     1     1     1.04123556    -0.13394957   -40.19286140    -0.00003423    -0.00001973  0.37D-07  0.46D-07     0.04
    4     1     1     1.04125370    -0.13395335   -40.19286518    -0.00000378     0.00000025  0.45D-09  0.95D-10     0.04
    5     1     1     1.04125365    -0.13395334   -40.19286517     0.00000001    -0.00000006  0.75D-12  0.16D-11     0.05

 Energies without level shift correction:

    5     1     1     1.04125365    -0.12570261   -40.18461444

 Energy contributions for state 1.1:
 ===================================

            Energy contr.      SQ.Norm of FOWF
 Space I     -0.00000000          0.00000000
 Space S     -0.01124196          0.00506966
 Space P     -0.11446065          0.03618399


 =====================================
 Analysis of CPU times by interactions
 =====================================

       I      S      P

 I   0.0%
 S   0.0%   0.0%
 P   0.0%  20.0%   0.0%

 Initialization:  60.0%
 Other:           20.0%

 Total CPU:        0.1 seconds
 =====================================



 Reference coefficients greater than 0.0500000
 =============================================
 22220          -0.7071068
 22202           0.7071068


 RESULTS FOR STATE 1.1
 =====================

 Coefficient of reference function:   C(0) = 1.00000000 (fixed)   1.00000000 (relaxed)

 Energy contributions of configuration classes

 CLASS          SQ.NORM        ECORR1        ECORR2
 +++++++++++++++++++++++++++++++++++++++++++++++++++
 Internals    0.00000000    0.00000000    0.13395334
 Singles      0.00506966   -0.01124196   -0.02395970
 Pairs        0.03618399   -0.11446065   -0.24394699
 Total        1.04125365   -0.12570261   -0.13395334
 +++++++++++++++++++++++++++++++++++++++++++++++++++


 Reference energy                     -40.05891183
 Nuclear energy                        10.15979070
 Kinetic energy                        40.08691799
 One electron energy                  -72.96531803
 Two electron energy                   22.61266216
 Virial quotient                       -1.00264294
 Correlation energy                    -0.13395334
 !RSPT2 STATE 1.1 Energy              -40.192865173365

 Properties without orbital relaxation:

 !RSPT2 STATE 1.1 Dipole moment         0.00002982    -0.00001503     0.00082812
 Dipole moment /Debye                   0.00007579    -0.00003819     0.00210488


 **********************************************************************************************************************************
 DATASETS  * FILE   NREC   LENGTH (MB)   RECORD NAMES
              1      19       28.95       500      610      700      900      950      970     1000      129      960     1100   
                                          VAR    BASINP    GEOM    SYMINP    ZMAT    AOBASIS   BASIS     P2S    ABASIS      S 
                                         1400     1410     1200     1210     1080     1600     1650     1700     1380   
                                           T        V       H0       H01     AOSYM     SMH    MOLCAS    OPER     JKOP   

              2       4        0.43       700     1000      520     2140   
                                         GEOM     BASIS   MCVARS    MCSCF   

 PROGRAMS   *        TOTAL       RS2     MULTI       INT
 CPU TIMES  *         0.95      0.12      0.28      0.25
 REAL TIME  *         1.89 SEC
 DISK USED  *        29.42 MB (local),      134.20 MB (total)
 SF USED    *         1.23 MB
 GA USED    *         0.00 MB       (max)       0.00 MB       (current)
 **********************************************************************************************************************************
 SETTING CBSEN          =       -40.19286517  AU                              

 Dump information in style MOLDEN to molpro.molden                                                                   

 Molecular orbitals read from record     2140.2  Type=MCSCF/NATURAL (state 1.1)
 Occupation numbers read from record     2140.2  Type=MCSCF/NATURAL (state 1.1)
 Orbital energies read from record       2140.2  Type=MCSCF/NATURAL (state 1.1)
 Redundancy group numbers read from rec  2140.2  Type=MCSCF/NATURAL (state 1.1)

 DUMP ORBITAL  1.1 AS ORBITAL    1  occ=    2.0000  eig=  -11.2285  GROUP=   2
 DUMP ORBITAL  2.1 AS ORBITAL    2  occ=    2.0000  eig=   -0.8986  GROUP=   2
 DUMP ORBITAL  3.1 AS ORBITAL    3  occ=    2.0000  eig=   -0.5701  GROUP=   2
 DUMP ORBITAL  4.1 AS ORBITAL    4  occ=    2.0000  eig=   -0.5700  GROUP=   2
 DUMP ORBITAL  6.1 AS ORBITAL    5  occ=    1.0000  eig=   -0.1452  GROUP=   3
 DUMP ORBITAL  5.1 AS ORBITAL    6  occ=    1.0000  eig=   -0.1452  GROUP=   3

 Total charge:      10.000000

 **********************************************************************************************************************************

 RS2/cc-pVDZ energy=    -40.192865173365

             RS2           MULTI
    -40.19286517    -40.05891183
 **********************************************************************************************************************************
 Molpro calculation terminated
