[Molden Format]
[Molpro variables]
_NUMVAR=  1038.000000000000    
_AVOGAD= 0.6022140760000000E+24
_BOLTZ= 0.1380649000000000E-22
_CLIGHTSI=  299792458.0000000    
_JOULE= 0.4359744722207100E-17
_JPCAL=  4.184000000000000    
_PLANCK= 0.6626070150000000E-33
_BOHR= 0.5291772109030000E-10
_ECHARG= 0.1602176634000000E-18
_ENULL= 0.8854187812800001E-11
_MU= 0.1660539066600000E-26
_EMASS= 0.9109383701500001E-30
_AMU2AU=  1822.888486217313    
_CLIGHT=  29979245800.00000    
_EV= 0.3674932217565494E-01
_KJOULE= 0.3808798847133432E-03
_KJOULE/MOL= 0.3808798847133432E-03
_CM= 0.4556335252912009E-05
_CM-1= 0.4556335252912009E-05
_DEB2SI= 0.3335640951981520E-29
_KCAL= 0.1593601437640628E-02
_KCAL/MOL= 0.1593601437640628E-02
_KELVIN= 0.3166811563455608E-05
_HERTZ= 0.1519829846057038E-15
_HZ= 0.1519829846057038E-15
_TOA= 0.5291772109030000    
_TOANG= 0.5291772109030000    
_TORAD= 0.1745329251994330E-01
_TOCM=  219474.6313631965    
_TODEBYE=  2.541746473194078    
_TOE= 0.4803204712570263E-09
_TOEV=  27.21138624598803    
_TOHERTZ=  6579683920501656.    
_TOHZ=  6579683920501656.    
_TOK=  315775.0248040668    
_TOKCAL=  627.5094740630558    
_TOKELVIN=  315775.0248040668    
_TOKJ=  2625.499639479825    
_TOKJOULE=  2625.499639479825    
_TOKG= 0.1660539066600000E-26
_ANG=  1.889726124625770    
_ANGSTROM=  1.889726124625770    
_RPAREF=  0.000000000000000    
_RPADISS=  0.000000000000000    
_IGNORE_UNDEF=  2.000000000000000    
_STRICTCHECK=  0.000000000000000    
!SEWARD=  0.000000000000000    
!MULTI=  0.000000000000000    
!DFMULTI=  0.000000000000000    
_SEW_ONEEL=  0.000000000000000    
_CPPDONE=FALSE
_DKROLL_DONE=  0.000000000000000    
_FNUC_DONE=  0.000000000000000    
_FOCKDONE=  0.000000000000000    
_GRADONE=FALSE
_HESSDONE=FALSE
_INTDONE=TRUE
_SCFDONE=FALSE
_MODUL_BLOCK=FALSE
_MODUL_CUDA=FALSE
_MODUL_SLATER=FALSE
_MODUL_MRCC=TRUE
_MODUL_NBO6=FALSE
_MODUL_NECI=FALSE
_MODUL_AIMS=TRUE
_MODUL_GECCO=FALSE
_ISWINDOWS=FALSE
_MRCC_EXEC=/software/cinetica/mrcc/bin/dmrcc
_FITC_AO_SAVED=FALSE
_FITC_MO_SAVED=FALSE
_SHARED_FS=TRUE
_LSTYP=SEWARD
_INTYP=INTS
_GEOMTYP=ZMAT
_GRADTYP=ALASKA
_DIRECT=FALSE
_DKHO= -1.000000000000000    
_FNUC=  0.000000000000000    
_SYNCM=  0.000000000000000    
_BASIS=CC-PVDZ
_ZORIENT=  1.000000000000000    
!ZORIENT=  0.000000000000000    
_NELEC=  10.00000000000000    
!SPIN=  0.000000000000000    
_QSDSTEP=  0.000000000000000    
_QSDIRC=  0.000000000000000    
_PROGRAM=RS2
_CPUSTEP= 0.1299999999999999    
_SYSSTEP= 0.3000000000000003E-01
_WALLSTEP= 0.2700000000000000    
!DFMP2=  0.000000000000000    
!DFHFENERG=  0.000000000000000    
!SCSGRD=  0.000000000000000    
_CPUTOT= 0.9500000000000000    
_DMX= 0.2981635656840268E-04
_DMY=-0.1502662471255283E-04
_DMZ= 0.8281228029236587E-03
_EMP2= -40.19286517336519    
_ENERGR= -40.05891182988813    
_ENERGU= -40.18461444244453    
_ENERGY= -40.19286517336519    
_ENERGY_METHOD=RS2
_ENERGY_BASIS=cc-pVDZ
_GEOMETRY_METHOD=
_GEOMETRY_BASIS=
_ENERGY_AVRG= -40.05891182988816    
_ENUC=  10.15979069521988    
_GRADMETHOD=  9.000000000000000    
_NMRMETHOD=  0.000000000000000    
_NMRMAGNET=  0.000000000000000    
!GRID_FREEZE= -1.000000000000000    
!NEESE_INDEX=  0.000000000000000    
_ITERATIONS=  4.000000000000000    
_LASTNELEC=  2.000000000000000    
_LASTSPIN=  0.000000000000000    
_LASTSYM=  1.000000000000000    
_MPP_PROG=  1.000000000000000    
_MSNSTATES=  0.000000000000000    
_RS2PHASE=  0.000000000000000    
_IPROC_MPP=  0.000000000000000    
_IPROC_MPPX=  0.000000000000000    
_NPROC_MPP=  4.000000000000000    
_NPROC_MPPX=  4.000000000000000    
_NPROC_SMP=  1.000000000000000    
_NUMSTEP=  0.000000000000000    
_ORBITAL=  2140.200000000000    
_PI=  3.141592653589793    
!MCACT=  2.000000000000000    
!MCCLOSED=  4.000000000000000    
!MCFREEZE=  0.000000000000000    
!MCMS2=  0.000000000000000    
!MCNEL=  2.000000000000000    
!MCNSTSYM=  1.000000000000000    
!MCSTATE=  1.000000000000000    
!MCSYM=  1.000000000000000    
!MCWEIGHT=  1.000000000000000    
_SEIG_MIN= 0.1503828799482790E-01
_SEWPROP=TRUE
_STATUS=  1.000000000000000    
_SYSTOT= 0.3700000000000000    
_VERSION=  2022002.000000000    
_WALLTOT=  1.890000000000000    
_DATE=03-Jun-23
_LASTORB=MCSCF
_OUTPUT=/home/chimica2/cavallotti/qm/barrierless/vrc_autom/folders/ch3+h/dist_10.0/molpro.out
_PGROUP=C1
_TIME=09:00:30
_LIBMOL=/software/cinetica/molpro_2022.2/lib/
_VIGRDC=  0.000000000000000    
!VIBCNT=  0.000000000000000    
!RGHFCNT=  0.000000000000000    
!SURFREC=  0.000000000000000    
!XSURFREC=  0.000000000000000    
!XPOLYREC=  0.000000000000000    
!ROTREC=  0.000000000000000    
!POLYREC=  0.000000000000000    
!DIPREC=  0.000000000000000    
!DIP4DREC=  0.000000000000000    
!DIPROT=  0.000000000000000    
!DIP4DROT=  0.000000000000000    
!PTREC=  0.000000000000000    
!PT4DREC=  0.000000000000000    
!VSCFREC=  0.000000000000000    
!VCIREC=  0.000000000000000    
!PVCIREC=  0.000000000000000    
!VMP2REC=  0.000000000000000    
!VMCSCFREC=  0.000000000000000    
!VMRCIREC=  0.000000000000000    
!VIBSTATEREC=  0.000000000000000    
!VIBSTATECNT=  0.000000000000000    
!VIBINFO=  0.000000000000000    
!GAREC=  0.000000000000000    
!MCORB=  21402.00000000000    
!DEFCORE=  1.000000000000000    
!SCORE=  0.000000000000000    
!NEWMOL= -1.000000000000000    
!NEWSYM= -1.000000000000000    
_SLFILES=slscratch
_NGSSTO=  9.000000000000000    
_SIN=SIN
_COS=COS
_TAN=TAN
_ACOS=ACOS
_ASIN=ASIN
_ATAN=ATAN
_COSH=COSH
_SINH=SINH
_TANH=TANH
_ABS=ABS
_MOD=MOD
_ERF=ERF
_REFC=REFC
_ERFC=ERFC
_HYPOT=HYPOT
_J0=J0
_J1=J1
_JN=JN
_GAMMA=GAMMA
_LGAMMA=LGAMMA
_Y0=Y0
_Y1=Y1
_YN=YN
_EXP=EXP
_LOG=LOG
_LOG10=LOG10
_SQRT=SQRT
_INT=INT
_NINT=NINT
_MAX=MAX
_MIN=MIN
_COSMO=  0.000000000000000    
_COSMOIT=  0.000000000000000    
_COSMOES=  0.000000000000000    
_COSMOEDS=  0.000000000000000    
_COSMOEC=  0.000000000000000    
_COSMOEDCORR=  0.000000000000000    
_FEPSI=  1.000000000000000    
_SL_IsMM=  0.000000000000000    
_SL_NSYM=  1.000000000000000    
_SL_System_BitSw=  0.000000000000000    
_SL_Unique_atoms=  0.000000000000000    
_SL_GRAD=  0.000000000000000    
_SL_MAXUPD_Hess=  5.000000000000000    
_SL_N_PRINT_COD=  5.000000000000000    
_SL_PRINT_CODES=  0.000000000000000    
_SL_BasType=  0.000000000000000    
_SL_Energy_Pred=  0.000000000000000    
_SL_New_Coords=  0.000000000000000    
_SL_Total_Nuclea=  0.000000000000000    
_SL_Highest_Mltp=  0.000000000000000    
_SL_Ref_Geom=  0.000000000000000    
_SL_Symmetry_ope=  1.000000000000000    
_SL_agrad=  0.000000000000000    
_SL_GrdMax=  0.000000000000000    
_SL_GrdNorm=  0.000000000000000    
_SL_GrdRMS=  0.000000000000000    
_SL_Hss_Q=  0.000000000000000    
_SL_Hss_X=  0.000000000000000    
_SL_BMxOld=  0.000000000000000    
_SL_KtB=  0.000000000000000    
_SL_TROld=  0.000000000000000    
_SL_No_of_Intern=  0.000000000000000    
_SL_Hess=  0.000000000000000    
_SL_K=  0.000000000000000    
!LATTICE= -1.000000000000000    
!NEWLATTICE=  0.000000000000000    
!LATGRAD_VAR=FALSE
!SEW_LATTICE=  1.000000000000000    
!AIC_ONEEL=  0.000000000000000    
!LOCAL=  0.000000000000000    
!SAVEDOM= -1.000000000000000    
!RESTDOM= -1.000000000000000    
!SAVEDOM_HF= -1.000000000000000    
!RESTDOM_HF= -1.000000000000000    
!HESSREC=  0.000000000000000    
!FREQREC=  0.000000000000000    
!NMODREC=  0.000000000000000    
!GTASKS=  0.000000000000000    
!HTASKS=  0.000000000000000    
!SAVEDOM_EOM= -1.000000000000000    
!RESTDOM_EOM= -1.000000000000000    
!GRADSTATE= -1.000000000000000    
!DEBUG=  0.000000000000000    
!CFIT_CPHF=  0.000000000000000    
!RDOMAUX_CPHF=  0.000000000000000    
!THRAO_CPHF= 0.1000000000000000E-11
!THRMO_CPHF= 0.1000000000000000E-11
!THROV_CPHF= 0.1000000000000000E-11
!THRSW_CPHF= 0.1000000000000000E-11
!THRPROD_CPHF= 0.1000000000000000E-11
!THRAOPR_CPHF= 0.1000000000000000E-11
!CFIT_SCFGRD=  0.000000000000000    
!RDOMAUX_SCFGRD=  0.000000000000000    
!THRAO_SCFGRD= 0.1000000000000000E-11
!THRMO_SCFGRD= 0.1000000000000000E-11
!THROV_SCFGRD= 0.1000000000000000E-11
!THRSW_SCFGRD= 0.1000000000000000E-11
!THRPROD_SCFGRD= 0.1000000000000000E-11
!THRAOPR_SCFGRD= 0.1000000000000000E-11
!LOCFIT_SCF=  0.000000000000000    
!LOCFIT_MP2=  0.000000000000000    
_RIDOM=  0.000000000000000    
!CC2_METHOD=  0.000000000000000    
_BASIS2006=FALSE
_SVDDEL= -1.000000000000000    
_SVDDELA= -1.000000000000000    
_SVDDELP= -1.000000000000000    
_SVDDELF= -1.000000000000000    
_SVDDELS= -1.000000000000000    
_SVDDEL_ABS= -1.000000000000000    
_SVDDELA_ABS= -1.000000000000000    
_SVDDELP_ABS= -1.000000000000000    
_SVDDELF_ABS= -1.000000000000000    
_SVDDELS_ABS= -1.000000000000000    
_MAXBASIS=  0.000000000000000    
!OPT_CONICAL=  0.000000000000000    
!CLEARSP_JGRID=  0.000000000000000    
_GRDHYBR=  0.000000000000000    
_STATEGRAD=  1.000000000000000    
_4EXT_NDISKS=  1.000000000000000    
!EMBEDFLAG=  1.000000000000000    
!EMBED=FALSE
!EMBED_F12=FALSE
!EMBEDNUC=  0.000000000000000    
_EMBEDENERGY=  0.000000000000000    
!EMBED_DFC=FALSE
!NUM_VOIDS=  0.000000000000000    
_IBODY=  0.000000000000000    
_EMBE_CORR=  0.000000000000000    
!EMBED_PROJ=FALSE
!EMB_PROJ_ZMU=  1000000.000000000    
!CORRECTION_HF=  0.000000000000000    
!EMBED_AORB=  0.000000000000000    
!EMBED_NACORR=  0.000000000000000    
!EMBED_MP2=FALSE
!EMBED_TRUNC_PERTURBATION=FALSE
!EMBED_FROZEN=  0.000000000000000    
!EMBED_ACTIVE=  0.000000000000000    
_CHANGE_BASIS=FALSE
_RESTORE_BASIS=FALSE
_FIX_EMBED_GUESS=FALSE
_EMBED_SCF=FALSE
_HUZINAGA_T=FALSE
_HUZINAGA_F=FALSE
_HUZINAGA=FALSE
_HUZINAGA_CORRECT=FALSE
!FASTLATGRAD=  1.000000000000000    
!FASTVLAMBDA= -1.000000000000000    
!IFORCE= -1.000000000000000    
!USESYM= -1.000000000000000    
_SINDEX=  0.000000000000000    
_AVDOM_OSV=  0.000000000000000    
_AVDOM_PNO=  0.000000000000000    
_AVDOM_PAO=  0.000000000000000    
_AVDOM_LMO=  0.000000000000000    
_CC2OSV_FLAG=  0.000000000000000    
_EOMCCSD_CONV=FALSE
_TMADC2_FLAG=FALSE
_PROPADC2_FLAG=FALSE
_LEN_VirQ=  0.000000000000000    
_GRDCC2LR_FLAG=FALSE
_GRDADC2_FLAG=FALSE
_DMX_CC=-0.9524651736149137E-03
_DMY_CC= 0.3540823682923744E-04
_DMZ_CC=  9.494188749111069    
_DMX_NUC=-0.1497433810002118E-03
_DMY_NUC=-0.2291462039999014E-03
_DMZ_NUC=  7.026629117558000    
_RO_VGLOBAL=  0.000000000000000    
_OPT=FALSE
_FREQ=FALSE
_HESS=FALSE
_CMRCC_callName=EMPTY
_CMRCC_callCount=  0.000000000000000    
_GECCO_CIROOT=  1.000000000000000    
_SYM_CATION=  0.000000000000000    
_MON_A=FALSE
_MON_B=FALSE
BABS1=  89.76819999999999    
AABS1=  89.79290000000000    
R3=  1.078200000000000    
A2=  119.9721000000000    
A3=  120.0207000000000    
D3=  179.8076000000000    
R2=  1.078200000000000    
R1=  1.078200000000000    
RTS=  10.00000000000000    
GX1= 0.2530995000019857E-04
GY1= 0.3873078684941099E-04
GZ1= -1.187656045040579    
GX2=  1.248028602167002    
GY2=  1.610581910414161    
GZ2= -1.180190622568477    
GX3= 0.7716948163400235    
GY3= -1.885678987100141    
GZ3= -1.184171118057951    
GX4= -2.018853157729898    
GY4= 0.2748510226062831    
GZ4= -1.192678033156141    
GX5=-0.1171863858117232E-02
GY5=-0.2154768456045023E-03
GZ5=  17.70960516158581    
CBSEN= -40.19286517336519    
[Atoms] Angs
C     1    6         0.0000133934        0.0000204954       -0.6284805134
H     2    1         0.6604282948        0.8522832433       -0.6245299820
H     3    1         0.4083633106       -0.9978583471       -0.6266363695
H     4    1        -1.0683310832        0.1454448976       -0.6311380351
H     5    1        -0.0006201236       -0.0001140254        9.3715194656
[GTO]
   1 0
 s    9  1.00
  0.6665000000D+04  0.6920001793D-03
  0.1000000000D+04  0.5329001381D-02
  0.2280000000D+03  0.2707700701D-01
  0.6471000000D+02  0.1017180264D+00
  0.2106000000D+02  0.2747400712D+00
  0.7495000000D+01  0.4485641162D+00
  0.2797000000D+01  0.2850740738D+00
  0.5215000000D+00  0.1520400394D-01
  0.1596000000D+00 -0.3191000827D-02
 s    9  1.00
  0.6665000000D+04 -0.1460000642D-03
  0.1000000000D+04 -0.1154000508D-02
  0.2280000000D+03 -0.5725002519D-02
  0.6471000000D+02 -0.2331201026D-01
  0.2106000000D+02 -0.6395502813D-01
  0.7495000000D+01 -0.1499810660D+00
  0.2797000000D+01 -0.1272620560D+00
  0.5215000000D+00  0.5445292395D+00
  0.1596000000D+00  0.5804962554D+00
 s    9  1.00
  0.6665000000D+04  0.0000000000D+00
  0.1000000000D+04  0.0000000000D+00
  0.2280000000D+03  0.0000000000D+00
  0.6471000000D+02  0.0000000000D+00
  0.2106000000D+02  0.0000000000D+00
  0.7495000000D+01  0.0000000000D+00
  0.2797000000D+01  0.0000000000D+00
  0.5215000000D+00  0.0000000000D+00
  0.1596000000D+00  0.1000000000D+01
 p    4  1.00
  0.9439000000D+01  0.3810902127D-01
  0.2002000000D+01  0.2094801169D+00
  0.5456000000D+00  0.5085572839D+00
  0.1517000000D+00  0.4688422617D+00
 p    4  1.00
  0.9439000000D+01  0.0000000000D+00
  0.2002000000D+01  0.0000000000D+00
  0.5456000000D+00  0.0000000000D+00
  0.1517000000D+00  0.1000000000D+01
 d    1  1.00
  0.5500000000D+00  0.1000000000D+01
  
   2 0
 s    4  1.00
  0.1301000000D+02  0.1968498999D-01
  0.1962000000D+01  0.1379769298D+00
  0.4446000000D+00  0.4781477569D+00
  0.1220000000D+00  0.5012397451D+00
 s    4  1.00
  0.1301000000D+02  0.0000000000D+00
  0.1962000000D+01  0.0000000000D+00
  0.4446000000D+00  0.0000000000D+00
  0.1220000000D+00  0.1000000000D+01
 p    1  1.00
  0.7270000000D+00  0.1000000000D+01
  
   3 0
 s    4  1.00
  0.1301000000D+02  0.1968498999D-01
  0.1962000000D+01  0.1379769298D+00
  0.4446000000D+00  0.4781477569D+00
  0.1220000000D+00  0.5012397451D+00
 s    4  1.00
  0.1301000000D+02  0.0000000000D+00
  0.1962000000D+01  0.0000000000D+00
  0.4446000000D+00  0.0000000000D+00
  0.1220000000D+00  0.1000000000D+01
 p    1  1.00
  0.7270000000D+00  0.1000000000D+01
  
   4 0
 s    4  1.00
  0.1301000000D+02  0.1968498999D-01
  0.1962000000D+01  0.1379769298D+00
  0.4446000000D+00  0.4781477569D+00
  0.1220000000D+00  0.5012397451D+00
 s    4  1.00
  0.1301000000D+02  0.0000000000D+00
  0.1962000000D+01  0.0000000000D+00
  0.4446000000D+00  0.0000000000D+00
  0.1220000000D+00  0.1000000000D+01
 p    1  1.00
  0.7270000000D+00  0.1000000000D+01
  
   5 0
 s    4  1.00
  0.1301000000D+02  0.1968498999D-01
  0.1962000000D+01  0.1379769298D+00
  0.4446000000D+00  0.4781477569D+00
  0.1220000000D+00  0.5012397451D+00
 s    4  1.00
  0.1301000000D+02  0.0000000000D+00
  0.1962000000D+01  0.0000000000D+00
  0.4446000000D+00  0.0000000000D+00
  0.1220000000D+00  0.1000000000D+01
 p    1  1.00
  0.7270000000D+00  0.1000000000D+01


[MO]
 Sym=      1.1
 Ene=     -11.2285
 Spin= Alpha
 Occup=    2.000000
1 1.00137965199387
2 0.008010377415336
3 -0.008010223534830
4 0.000000061487042
5 -0.000000039774131
6 0.000005761000291
7 -0.000000531036546
8 0.000000242120567
9 -0.000003895061073
10 0.000363375982717
11 0.000361785542396
12 -0.000725161525113
13 0.000000004398045
14 0.000004468575417
15 0.000000821009173
16 -0.000698815566646
17 0.001605994140291
18 0.000319124822210
19 0.000412412242301
20 0.000002390970789
21 -0.000698344502292
22 0.001605831440577
23 0.000197215124264
24 -0.000482609832502
25 0.000001371723463
26 -0.000700004968902
27 0.001606405272534
28 -0.000516983195364
29 0.000070473596465
30 -0.000000804078058
31 0.000000000000473
32 -0.000000000001649
33 -0.000000000000006
34 -0.000000000000007
35 0.000000000000018
 Sym=      2.1
 Ene=      -0.8986
 Spin= Alpha
 Occup=    2.000000
1 -0.028286042807215
2 0.75453206601436
3 -0.14568173093236
4 0.000046024002071
5 -0.000021258594762
6 0.000467775736805
7 -0.000029956554246
8 0.000013346751489
9 -0.000084733820626
10 0.001635058682461
11 0.001636672240804
12 -0.003271730923265
13 -0.000000020591574
14 0.000020145091520
15 0.000003706395609
16 0.35086493512526
17 -0.14527458063849
18 -0.017449160426846
19 -0.022523176502139
20 -0.000093988295939
21 0.35087488274030
22 -0.14527395645513
23 -0.010788567446786
24 0.026369735535177
25 -0.000038325450437
26 0.35083976014577
27 -0.14527615303187
28 0.028231875439458
29 -0.003843872063770
30 0.000080624365084
31 -0.000000000118005
32 0.000000000146660
33 0.000000000000203
34 0.000000000000185
35 -0.000000000000661
 Sym=      3.1
 Ene=      -0.5701
 Spin= Alpha
 Occup=    2.000000
1 0.000001404988382
2 -0.000072461189249
3 -0.000011024364652
4 0.63901619610607
5 0.002506317663058
6 0.002273288755038
7 -0.12045609487719
8 -0.000472447829619
9 -0.000428536887256
10 -0.018924472765519
11 0.018925452410896
12 -0.000000979645377
13 0.009498498357582
14 -0.000007015718128
15 0.000048316225936
16 0.39277521479360
17 -0.11117553611834
18 -0.000581782168197
19 -0.017066223390379
20 -0.000033601581649
21 0.23929179705293
22 -0.067732721428232
23 0.007685051255458
24 0.012259527951450
25 0.000022930549041
26 -0.63204271266667
27 0.17889473522838
28 -0.021841040962101
29 0.004748889625740
30 -0.000041758647203
31 -0.000000000005150
32 0.000000000008782
33 -0.000000000000083
34 0.000000000000030
35 -0.000000000000024
 Sym=      4.1
 Ene=      -0.5700
 Spin= Alpha
 Occup=    2.000000
1 -0.000000623181326
2 0.000032182122794
3 0.000004895718852
4 -0.002507822212866
5 0.63902961203005
6 0.000409130047538
7 0.000472492707572
8 -0.12039820091000
9 -0.000077076012306
10 0.008232164560305
11 -0.008232950582892
12 0.000000786022587
13 0.021869576946541
14 0.000047843652459
15 0.000135974807051
16 0.50304540065107
17 -0.14234752690191
18 -0.017031469861692
19 -0.009232852668114
20 -0.000092670070869
21 -0.59166343853404
22 0.16742605301370
23 0.012300692801597
24 -0.017498474195840
25 0.000062960101562
26 0.088607231887405
27 -0.025072513304270
28 0.004788497270682
29 0.012022837719713
30 0.000020293255261
31 0.000000000000709
32 -0.000000000000607
33 -0.000000000000000
34 -0.000000000000039
35 -0.000000000000002
 Sym=      6.1
 Ene=      -0.1452
 Spin= Alpha
 Occup=    1.000000
1 -0.000006137605221
2 -0.000824077036328
3 -0.000355055842553
4 -0.002251869086497
5 -0.000414385572294
6 0.63344716867683
7 -0.000257966058585
8 -0.000047478701383
9 0.072568595474265
10 0.000030222884809
11 0.000030226852034
12 -0.000060449736843
13 0.000000002323592
14 0.000003218993197
15 -0.000001182520051
16 0.000329081768336
17 -0.000029741420183
18 -0.000056442709360
19 -0.000018310983633
20 0.013864915338976
21 0.000329033939866
22 -0.000029748746970
23 -0.000053707690329
24 0.000001745684336
25 0.013864131394464
26 0.000329201437853
27 -0.000029729367213
28 -0.000037712551729
29 -0.000010649795174
30 0.013867025042410
31 -0.70710733187901
32 0.000000598251791
33 -0.000000032782920
34 -0.000000005146314
35 -0.000009282332491
 Sym=      5.1
 Ene=      -0.1452
 Spin= Alpha
 Occup=    1.000000
1 -0.000006136779705
2 -0.000824074742838
3 -0.000355066944748
4 -0.002251869156085
5 -0.000414385589470
6 0.63344718594744
7 -0.000257966150139
8 -0.000047478710450
9 0.072568598553788
10 0.000030222638014
11 0.000030226593313
12 -0.000060449231327
13 0.000000002318483
14 0.000003218989107
15 -0.000001182520001
16 0.000329081901979
17 -0.000029737583439
18 -0.000056442990887
19 -0.000018311350025
20 0.013864915645067
21 0.000329034077469
22 -0.000029744968321
23 -0.000053707859541
24 0.000001746108116
25 0.013864131701997
26 0.000329201586835
27 -0.000029725730068
28 -0.000037712110200
29 -0.000010649853234
30 0.013867025350000
31 0.70710730956845
32 -0.000000595963047
33 0.000000032782915
34 0.000000005146318
35 0.000009282329300
 Sym=      7.1
 Ene=       0.2023
 Spin= Alpha
 Occup=    0.000000
1 0.080612282514911
2 -0.21707933012296
3 -2.08790930790362
4 -0.000002696902408
5 0.000002440183821
6 -0.000573066255786
7 -0.000123194852017
8 0.000056933605642
9 -0.001278973162735
10 -0.014228493295992
11 -0.014203312892882
12 0.028431806188874
13 -0.000000001925458
14 -0.000175147622067
15 -0.000032193047360
16 0.049505829301572
17 1.02389637542357
18 -0.011494218755321
19 -0.014852261707994
20 -0.000074560603712
21 0.049483121810811
22 1.02389497843681
23 -0.007104534090979
24 0.017383315403043
25 -0.000037860836505
26 0.049563121737379
27 1.02389960709893
28 0.018612307855923
29 -0.002536853179760
30 0.000040505946901
31 -0.000000020725182
32 0.000000020431879
33 -0.000000000000678
34 0.000000000000526
35 -0.000000000001078
 Sym=      8.1
 Ene=       0.2718
 Spin= Alpha
 Occup=    0.000000
1 -0.000007304662075
2 -0.000056822026743
3 0.000141055064775
4 0.44203940100715
5 0.001669798105055
6 0.001572449613199
7 1.25516804421080
8 0.004741462567193
9 0.004465160908672
10 -0.019985755887103
11 0.020000531638899
12 -0.000014775751796
13 0.010030592979816
14 0.000020539306596
15 0.000051139647502
16 -0.011468852111600
17 -1.35280496325603
18 0.012783905248253
19 0.011918591766131
20 0.000061539751934
21 -0.006969115346534
22 -0.82465331319763
23 0.007030029772404
24 -0.008487388604565
25 0.000024493515261
26 0.018606005244322
27 2.17712949455757
28 0.027568362576665
29 -0.003252221721933
30 0.000082506233191
31 0.000000000379371
32 -0.000000000382517
33 0.000000000000000
34 -0.000000000000002
35 -0.000000000000054
 Sym=      9.1
 Ene=       0.2718
 Spin= Alpha
 Occup=    0.000000
1 0.000003243683137
2 0.000025214549052
3 -0.000062706924173
4 -0.001670992760721
5 0.44208639899463
6 0.000283293213881
7 -0.004742777765785
8 1.25479385037257
9 0.000803990418814
10 0.008684621123910
11 -0.008691660113072
12 0.000007038989162
13 0.023088820505420
14 0.000050363459432
15 0.000171395505163
16 -0.014948329587661
17 -1.73274413955189
18 0.011801580440836
19 0.018808878594457
20 0.000064919739205
21 0.017524318686531
22 2.03771931034300
23 -0.008608444205076
24 0.024557759226885
25 -0.000027068975894
26 -0.002650669850049
27 -0.30482898365429
28 -0.003372317877153
29 0.004037298004240
30 -0.000007468955289
31 0.000000000069524
32 -0.000000000070525
33 -0.000000000000000
34 -0.000000000000002
35 -0.000000000000009
 Sym=     10.1
 Ene=       0.6162
 Spin= Alpha
 Occup=    0.000000
1 -0.000051276978698
2 -0.000126149111029
3 0.000234566859893
4 0.001857785350040
5 -0.45163283002103
6 -0.000289188918561
7 -0.006920893338459
8 1.68247734514634
9 0.001076819245272
10 -0.042206622897924
11 0.042144292800103
12 0.000062330097821
13 -0.11198084413369
14 -0.000246046961450
15 -0.000541939372158
16 -1.04505694254402
17 0.33333672998952
18 -0.036915153501054
19 0.023023451659032
20 -0.000165912839779
21 1.22865920852015
22 -0.39151414821567
23 0.026319283101674
24 0.005236175026432
25 0.000155510254309
26 -0.18464629549759
27 0.059041514925709
28 0.010196025331592
29 0.068939420926856
30 0.000072570820147
31 -0.000000000012117
32 0.000000000010960
33 -0.000000000000000
34 0.000000000000017
35 0.000000000000007
 Sym=     11.1
 Ene=       0.6164
 Spin= Alpha
 Occup=    0.000000
1 0.000115618057930
2 0.000284280815679
3 -0.000529236717830
4 -0.45170574572544
5 -0.001857184944393
6 -0.001606222037671
7 1.68376408872891
8 0.006922734325210
9 0.005988438265788
10 0.097077977149502
11 -0.096934631952357
12 -0.000143345197146
13 -0.048713310250021
14 0.000191382765617
15 -0.000247010189142
16 -0.81522588140299
17 0.25863486725872
18 0.041853097216620
19 -0.036640269973250
20 0.000085856269437
21 -0.49599640201169
22 0.15720091724224
23 0.059680573539548
24 0.026580438241327
25 0.000205829043589
26 1.31357711566416
27 -0.41778402709027
28 -0.004165747603114
29 0.010460140139783
30 0.000054703949201
31 0.000000000288870
32 -0.000000000322016
33 0.000000000000016
34 0.000000000000002
35 0.000000000000007
 Sym=     12.1
 Ene=       0.6367
 Spin= Alpha
 Occup=    0.000000
1 0.000000004248243
2 0.000000030303533
3 -0.000000024554390
4 0.000000000297087
5 0.000000000073849
6 -0.000000023331000
7 -0.000000000042439
8 -0.000000000072164
9 0.000000027458591
10 -0.000000002375311
11 -0.000000002493193
12 0.000000004868504
13 -0.000000000041142
14 -0.000000000030488
15 -0.000000000005931
16 -0.000000014045995
17 0.000000008825241
18 -0.000000002278321
19 -0.000000002986029
20 -0.000000001191604
21 -0.000000013965654
22 0.000000008828940
23 -0.000000001376056
24 0.000000003461622
25 -0.000000001184413
26 -0.000000013577691
27 0.000000008785736
28 0.000000003627512
29 -0.000000000484305
30 -0.000000001168268
31 -2.11046170525207
32 2.33539078864335
33 -0.000000008785086
34 -0.000000001479795
35 -0.000002474016746
 Sym=     13.1
 Ene=       0.7256
 Spin= Alpha
 Occup=    0.000000
1 -0.11722136437236
2 -0.13741772266273
3 0.66230505865622
4 0.000134237205138
5 0.000342174265996
6 -0.18116732946870
7 0.001201316146820
8 -0.001012528258806
9 0.21939984853496
10 -0.13558372984716
11 -0.13553947617176
12 0.27112320601893
13 0.000000773638482
14 -0.001669385305186
15 -0.000307239802928
16 -1.13079206069745
17 0.80937036068494
18 -0.072939918295332
19 -0.094302586337305
20 -0.007217887094074
21 -1.13127327709662
22 0.80917322523916
23 -0.045065456900892
24 0.11035994629995
25 -0.006985129207623
26 -1.12957158426372
27 0.80986936271779
28 0.11823514045869
29 -0.016112342327134
30 -0.006486565009517
31 0.000000033371440
32 -0.000000037449476
33 0.000000000000249
34 0.000000000000270
35 -0.000000000000321
 Sym=     14.1
 Ene=       0.7265
 Spin= Alpha
 Occup=    0.000000
1 0.014649879148555
2 0.017984052193278
3 -0.081666749309411
4 0.005287888524653
5 0.000934012544145
6 -1.46983241292970
7 -0.006535800760422
8 -0.001051185060155
9 1.77005408499276
10 0.016816171765267
11 0.016810355170996
12 -0.033626526936263
13 -0.000000091811242
14 0.000210272179801
15 0.000036689461941
16 0.13947149985189
17 -0.10030774982812
18 0.009343589772950
19 0.011854407711411
20 -0.056290211269932
21 0.13953040417534
22 -0.10028324717067
23 0.005850625096260
24 -0.013791818013108
25 -0.056320874568077
26 0.13932210268986
27 -0.10036976438424
28 -0.014612711453114
29 0.002056398790035
30 -0.056378068984544
31 0.000000028717707
32 -0.000000032284197
33 -0.000000000000066
34 -0.000000000000126
35 0.000000000000679
 Sym=     15.1
 Ene=       0.9051
 Spin= Alpha
 Occup=    0.000000
1 -0.000016950085165
2 -0.000056849810185
3 0.000072069995245
4 0.004939564583191
5 -1.24258662899487
6 -0.000795292872006
7 -0.009167739603489
8 2.30622491212979
9 0.001476098155149
10 0.11883308619934
11 -0.11887089182668
12 0.000037805627346
13 0.31568515458509
14 0.000691838014002
15 0.001618756674856
16 0.46721477288364
17 -1.58501472818350
18 0.17514138179571
19 0.15422140508375
20 0.000977524736523
21 -0.54974703310385
22 1.86448647528462
23 -0.12690943612509
24 0.23936816672258
25 -0.000593307412279
26 0.082255985376122
27 -0.27924693289464
28 -0.049539784065036
29 -0.064595642876176
30 -0.000173588982001
31 -0.000000000073370
32 0.000000000082991
33 0.000000000000001
34 -0.000000000000000
35 0.000000000000004
 Sym=     16.1
 Ene=       0.9051
 Spin= Alpha
 Occup=    0.000000
1 0.000038088226293
2 0.000127643959072
3 -0.000161679377419
4 -1.24256459971661
5 -0.004936716838812
6 -0.004420513082397
7 2.30643767589017
8 0.009163519335823
9 0.008205219110860
10 -0.27325241622632
11 0.27332915129980
12 -0.000076735073481
13 0.13718535860855
14 -0.000445048261920
15 0.000696540964296
16 0.36521112687887
17 -1.23795943058508
18 0.065136784177209
19 0.17597300772079
20 0.000544885979375
21 0.22253449880300
22 -0.75411832840580
23 -0.020016093659615
24 -0.12600919021569
25 -0.000032874160910
26 -0.58712372804568
27 1.99157144928023
28 0.28397422358455
29 -0.048656333937477
30 0.000658626199385
31 -0.000000000399144
32 0.000000000459564
33 -0.000000000000006
34 0.000000000000004
35 0.000000000000002
 Sym=     17.1
 Ene=       1.0723
 Spin= Alpha
 Occup=    0.000000
1 -0.79609779073394
2 -3.62728962460710
3 6.14595532876936
4 -0.000093870280164
5 0.000042043880293
6 -0.000334065584679
7 0.000474343295683
8 -0.000212379897773
9 0.001769266675133
10 0.026184672203231
11 0.025936179535635
12 -0.052120851738866
13 0.000000903959138
14 0.000321168962217
15 0.000059086187976
16 -0.14721802471936
17 -0.89207508686692
18 0.11717946901524
19 0.15125908321302
20 0.000872685956602
21 -0.14724599726973
22 -0.89213579972371
23 0.072446285615207
24 -0.17708249297737
25 0.000498724000096
26 -0.14714682485137
27 -0.89192210247750
28 -0.18961810103778
29 0.025817654685689
30 -0.000299658917381
31 -0.000000019031740
32 0.000000022226250
33 -0.000000000000253
34 -0.000000000001605
35 0.000000000000839
 Sym=     18.1
 Ene=       1.2189
 Spin= Alpha
 Occup=    0.000000
1 -0.000000403739296
2 -0.000001771511523
3 0.000002873208449
4 -0.000230968619469
5 -0.000000879134405
6 -0.000037864800266
7 -0.000549647842307
8 -0.000002145625163
9 0.000000134719170
10 -0.003006628423956
11 -0.000849259111926
12 0.003855887535882
13 -0.000842709618853
14 0.62568749569439
15 0.002439472786889
16 0.000416910759679
17 -0.000135468048102
18 -0.000409974723766
19 -0.000738208588045
20 0.25433618491352
21 0.000253924267475
22 -0.000082645780467
23 0.000220896513645
24 0.000312773154114
25 0.15497356599576
26 -0.000671482434144
27 0.000217251088926
28 0.001234328455138
29 0.000429452182652
30 -0.40920526016010
31 -0.000000000002285
32 0.000000000002450
33 0.000000000000299
34 0.000000000000002
35 -0.000000000000003
 Sym=     19.1
 Ene=       1.2189
 Spin= Alpha
 Occup=    0.000000
1 0.000000180066423
2 0.000000790228207
3 -0.000001281490935
4 0.000000843157622
5 -0.000230713927308
6 0.000016304629450
7 0.000002148081568
8 -0.000549277106361
9 -0.000001278478341
10 -0.000352447097237
11 -0.000341303004109
12 0.000693750101345
13 -0.003199609603588
14 -0.002448376687316
15 0.62576696333915
16 0.000533741013211
17 -0.000172702736387
18 -0.001731643978737
19 -0.000010331627988
20 0.32570058583762
21 -0.000627536300048
22 0.000203400193640
23 0.001772778804240
24 0.000175727863408
25 -0.38309727039222
26 0.000094082703939
27 -0.000030311725093
28 -0.000045059162671
29 0.000879694868322
30 0.057352592663835
31 0.000000000000047
32 -0.000000000000174
33 -0.000000000000001
34 0.000000000000300
35 0.000000000000000
 Sym=     20.1
 Ene=       1.5085
 Spin= Alpha
 Occup=    0.000000
1 -0.000000000001184
2 -0.000000000005707
3 0.000000000009672
4 0.000000000000015
5 0.000000000000034