 Entering Gaussian System, Link 0=g09
 Input=geom.com
 Output=geom.log
 Initial command:
 /software/cinetica/g09d1/g09d01/d01/build-node-6-2-59348/src/main/l1.exe "/scratch/cc/140688/Gau-60419.inp" -scrdir="/scratch/cc/140688/"
 Entering Link 1 = /software/cinetica/g09d1/g09d01/d01/build-node-6-2-59348/src/main/l1.exe PID=     60420.
  
 Copyright (c) 1988,1990,1992,1993,1995,1998,2003,2009,2013,
            Gaussian, Inc.  All Rights Reserved.
  
 This is part of the Gaussian(R) 09 program.  It is based on
 the Gaussian(R) 03 system (copyright 2003, Gaussian, Inc.),
 the Gaussian(R) 98 system (copyright 1998, Gaussian, Inc.),
 the Gaussian(R) 94 system (copyright 1995, Gaussian, Inc.),
 the Gaussian 92(TM) system (copyright 1992, Gaussian, Inc.),
 the Gaussian 90(TM) system (copyright 1990, Gaussian, Inc.),
 the Gaussian 88(TM) system (copyright 1988, Gaussian, Inc.),
 the Gaussian 86(TM) system (copyright 1986, Carnegie Mellon
 University), and the Gaussian 82(TM) system (copyright 1983,
 Carnegie Mellon University). Gaussian is a federally registered
 trademark of Gaussian, Inc.
  
 This software contains proprietary and confidential information,
 including trade secrets, belonging to Gaussian, Inc.
  
 This software is provided under written license and may be
 used, copied, transmitted, or stored only in accord with that
 written license.
  
 The following legend is applicable only to US Government
 contracts under FAR:
  
                    RESTRICTED RIGHTS LEGEND
  
 Use, reproduction and disclosure by the US Government is
 subject to restrictions as set forth in subparagraphs (a)
 and (c) of the Commercial Computer Software - Restricted
 Rights clause in FAR 52.227-19.
  
 Gaussian, Inc.
 340 Quinnipiac St., Bldg. 40, Wallingford CT 06492
  
  
 ---------------------------------------------------------------
 Warning -- This program may not be used in any manner that
 competes with the business of Gaussian, Inc. or will provide
 assistance to any competitor of Gaussian, Inc.  The licensee
 of this program is prohibited from giving any competitor of
 Gaussian, Inc. access to this program.  By using this program,
 the user acknowledges that Gaussian, Inc. is engaged in the
 business of creating and licensing software in the field of
 computational chemistry and represents and warrants to the
 licensee that it is not a competitor of Gaussian, Inc. and that
 it will not use this program in any manner prohibited above.
 ---------------------------------------------------------------
  

 Cite this work as:
 Gaussian 09, Revision D.01,
 M. J. Frisch, G. W. Trucks, H. B. Schlegel, G. E. Scuseria, 
 M. A. Robb, J. R. Cheeseman, G. Scalmani, V. Barone, B. Mennucci, 
 G. A. Petersson, H. Nakatsuji, M. Caricato, X. Li, H. P. Hratchian, 
 A. F. Izmaylov, J. Bloino, G. Zheng, J. L. Sonnenberg, M. Hada, 
 M. Ehara, K. Toyota, R. Fukuda, J. Hasegawa, M. Ishida, T. Nakajima, 
 Y. Honda, O. Kitao, H. Nakai, T. Vreven, J. A. Montgomery, Jr., 
 J. E. Peralta, F. Ogliaro, M. Bearpark, J. J. Heyd, E. Brothers, 
 K. N. Kudin, V. N. Staroverov, T. Keith, R. Kobayashi, J. Normand, 
 K. Raghavachari, A. Rendell, J. C. Burant, S. S. Iyengar, J. Tomasi, 
 M. Cossi, N. Rega, J. M. Millam, M. Klene, J. E. Knox, J. B. Cross, 
 V. Bakken, C. Adamo, J. Jaramillo, R. Gomperts, R. E. Stratmann, 
 O. Yazyev, A. J. Austin, R. Cammi, C. Pomelli, J. W. Ochterski, 
 R. L. Martin, K. Morokuma, V. G. Zakrzewski, G. A. Voth, 
 P. Salvador, J. J. Dannenberg, S. Dapprich, A. D. Daniels, 
 O. Farkas, J. B. Foresman, J. V. Ortiz, J. Cioslowski, 
 and D. J. Fox, Gaussian, Inc., Wallingford CT, 2013.
 
 ******************************************
 Gaussian 09:  EM64L-G09RevD.01 24-Apr-2013
                 3-Jun-2023 
 ******************************************
 %mem=400MW
 %chk=tmp
 %NProcShared= 32
 Will use up to   32 processors via shared memory.
 ----------------------------------------------------------------------
 # uwb97xd/aug-cc-pvtz opt=(noeig,intern,maxcyc=50) # int=ultrafine nos
 ym freq iop(7/33=1) guess=(mix,always)
 ----------------------------------------------------------------------
 1/6=50,10=7,11=1,14=-1,18=40,26=4,38=1/1,3;
 2/12=2,15=1,17=6,18=5,29=3,40=1/2;
 3/5=16,6=1,7=10,11=2,16=1,25=1,30=1,71=1,74=-58,75=-5,116=2/1,2,3;
 4/13=-1/1;
 5/5=2,38=5/2;
 6/7=2,8=2,9=2,10=2,28=1/1;
 7/29=1,30=1,33=1/1,2,3,16;
 1/6=50,10=7,11=1,14=-1,18=40,26=4/3(2);
 2/15=1,29=3/2;
 99//99;
 2/15=1,29=3/2;
 3/5=16,6=1,7=10,11=2,16=1,25=1,30=1,71=1,74=-58,75=-5,116=2/1,2,3;
 4/13=-1/1;
 5/5=2,38=5/2;
 7/30=1,33=1/1,2,3,16;
 1/6=50,11=1,14=-1,18=40,26=4/3(-5);
 2/15=1,29=3/2;
 6/7=2,8=2,9=2,10=2,19=2,28=1/1;
 99/9=1/99;
 ------
 geom 0
 ------
 Symbolic Z-matrix:
 Charge =  0 Multiplicity = 1
 C1
 H2                   C1   R1
 H3                   C1   R2       H2   A2
 H4                   C1   R3       H2   A3       H3   D3       0
 H21                  C1   BB       H2   ANG1     H3   DH1      0
       Variables:
  R1                    1.0791                   
  R2                    1.0791                   
  R3                    1.0791                   
  A2                  117.1143                   
  A3                  117.1221                   
  D3                  213.1119                   
  DH1                 106.5501                   
  ANG1                 99.8829                   
       Constants:
  BB                    3.2                      
 

 GradGradGradGradGradGradGradGradGradGradGradGradGradGradGradGradGradGrad
 Berny optimization.
 Initialization pass.
                       ----------------------------
                       !    Initial Parameters    !
                       ! (Angstroms and Degrees)  !
 ----------------------                            ----------------------
 !      Name          Value   Derivative information (Atomic Units)     !
 ------------------------------------------------------------------------
 !       R1          1.0791   estimate D2E/DX2                          !
 !       R2          1.0791   estimate D2E/DX2                          !
 !       R3          1.0791   estimate D2E/DX2                          !
 !       A2        117.1143   estimate D2E/DX2                          !
 !       A3        117.1221   estimate D2E/DX2                          !
 !       D3        213.1119   estimate D2E/DX2                          !
 !       DH1       106.5501   estimate D2E/DX2                          !
 !      ANG1        99.8829   estimate D2E/DX2                          !
 !       BB          3.2      Frozen                                    !
 ------------------------------------------------------------------------
 Trust Radius=3.00D-01 FncErr=1.00D-07 GrdErr=1.00D-06
 Number of steps in this run=     50 maximum allowed number of steps=    100.
 GradGradGradGradGradGradGradGradGradGradGradGradGradGradGradGradGradGrad

 ---------------------------------------------------------------------------------------------------
                            Z-MATRIX (ANGSTROMS AND DEGREES)
   CD    Cent   Atom    N1       Length/X        N2       Alpha/Y        N3        Beta/Z          J
 ---------------------------------------------------------------------------------------------------
      1      1  C 
      2      2  H        1   1.079100(     1)
      3      3  H        1   1.079100(     2)      2  117.114(     5)
      4      4  H        1   1.079100(     3)      2  117.122(     6)      3  213.112(     8)      0
      5      5  H        1   3.200000(     4)      2   99.883(     7)      3  106.550(     9)      0
 ---------------------------------------------------------------------------------------------------
                         Z-Matrix orientation:                         
 ---------------------------------------------------------------------
 Center     Atomic      Atomic             Coordinates (Angstroms)
 Number     Number       Type             X           Y           Z
 ---------------------------------------------------------------------
      1          6           0        0.000000    0.000000    0.000000
      2          1           0        0.000000    0.000000    1.079100
      3          1           0        0.960506    0.000000   -0.491818
      4          1           0       -0.804469    0.524665   -0.491949
      5          1           0       -0.898005   -3.021908   -0.549232
 ---------------------------------------------------------------------
                    Distance matrix (angstroms):
                    1          2          3          4          5
     1  C    0.000000
     2  H    1.079100   0.000000
     3  H    1.079100   1.841292   0.000000
     4  H    1.079100   1.841369   1.841306   0.000000
     5  H    3.200000   3.548212   3.548139   3.548269   0.000000
 Symmetry turned off by external request.
 Stoichiometry    CH4
 Framework group  C1[X(CH4)]
 Deg. of freedom     9
 Full point group                 C1      NOp   1
 Rotational constants (GHZ):    147.9014650     43.2346941     43.2340484
 Standard basis: Aug-CC-pVTZ (5D, 7F)
   138 basis functions,   180 primitive gaussians,   155 cartesian basis functions
     5 alpha electrons        5 beta electrons
       nuclear repulsion energy        11.1287706333 Hartrees.
 NAtoms=    5 NActive=    5 NUniq=    5 SFac= 1.00D+00 NAtFMM=   60 NAOKFM=F Big=F
 Integral buffers will be    131072 words long.
 Raffenetti 2 integral format.
 Two-electron integral symmetry is turned off.
 Nuclear repulsion after empirical dispersion term =       11.1283107924 Hartrees.
 One-electron integrals computed using PRISM.
 NBasis=   138 RedAO= T EigKep=  1.11D-04  NBF=   138
 NBsUse=   138 1.00D-06 EigRej= -1.00D+00 NBFU=   138
 ExpMin= 2.53D-02 ExpMax= 8.24D+03 ExpMxC= 2.81D+02 IAcc=3 IRadAn=         5 AccDes= 0.00D+00
 Harris functional with IExCor= 4639 and IRadAn=       5 diagonalized for initial guess.
 HarFok:  IExCor= 4639 AccDes= 0.00D+00 IRadAn=         5 IDoV= 1 UseB2=F ITyADJ=14
 ICtDFT=  3500011 ScaDFX=  1.000000  1.000000  1.000000  1.000000
 FoFCou: FMM=F IPFlag=           0 FMFlag=      100000 FMFlg1=           0
         NFxFlg=           0 DoJE=T BraDBF=F KetDBF=T FulRan=T
         wScrn=  0.000000 ICntrl=     500 IOpCl=  0 I1Cent=   200000004 NGrid=           0
         NMat0=    1 NMatS0=      1 NMatT0=    0 NMatD0=    1 NMtDS0=    0 NMtDT0=    0
 Symmetry not used in FoFCou.
 Mixing orbitals, IMix= 1 IMixAn=  0 NRI=1 NE=    5 Coef=  7.07106781D-01  7.07106781D-01
 Mixing orbitals, IMix= 1 IMixAn=  0 NRI=1 NE=    5 Coef= -7.07106781D-01  7.07106781D-01
 Initial guess <Sx>= 0.0000 <Sy>= 0.0000 <Sz>= 0.0000 <S**2>= 1.0000 S= 0.6180
 Keep R1 and R2 ints in memory in canonical form, NReq=186088918.
 Requested convergence on RMS density matrix=1.00D-08 within 128 cycles.
 Requested convergence on MAX density matrix=1.00D-06.
 Requested convergence on             energy=1.00D-06.
 No special actions if energy rises.
 Rare condition: small coef for last iteration:  0.000D+00
 SCF Done:  E(UwB97XD) =  -40.3405159476     A.U. after   17 cycles
            NFock= 17  Conv=0.22D-08     -V/T= 2.0070
 <Sx>= 0.0000 <Sy>= 0.0000 <Sz>= 0.0000 <S**2>= 0.9764 S= 0.6074
 <L.S>=  0.00000000000    
 Annihilation of the first spin contaminant:
 S**2 before annihilation     0.9764,   after     0.0266

 **********************************************************************

            Population analysis using the SCF density.

 **********************************************************************

 Alpha  occ. eigenvalues --  -10.29923  -0.78954  -0.50673  -0.50671  -0.32524
 Alpha virt. eigenvalues --    0.02943   0.05204   0.05204   0.05435   0.11856
 Alpha virt. eigenvalues --    0.13168   0.13197   0.13197   0.14775   0.20320
 Alpha virt. eigenvalues --    0.20321   0.22495   0.22495   0.27471   0.32203
 Alpha virt. eigenvalues --    0.32203   0.32334   0.33503   0.33503   0.34565
 Alpha virt. eigenvalues --    0.36054   0.38343   0.38892   0.38892   0.42577
 Alpha virt. eigenvalues --    0.42578   0.46824   0.46825   0.47427   0.60454
 Alpha virt. eigenvalues --    0.60674   0.60674   0.63854   0.71096   0.75085
 Alpha virt. eigenvalues --    0.75085   0.79175   0.79176   0.81673   0.82344
 Alpha virt. eigenvalues --    0.83344   0.83344   0.90989   0.92954   0.93183
 Alpha virt. eigenvalues --    0.93183   0.95088   0.95088   0.96828   0.96829
 Alpha virt. eigenvalues --    1.03420   1.03516   1.04758   1.04759   1.06235
 Alpha virt. eigenvalues --    1.06238   1.11374   1.11375   1.18212   1.18328
 Alpha virt. eigenvalues --    1.18329   1.28196   1.38256   1.38505   1.38506
 Alpha virt. eigenvalues --    1.48250   1.48251   1.51129   1.51130   1.51523
 Alpha virt. eigenvalues --    1.52164   1.54584   1.73890   1.75400   1.75400
 Alpha virt. eigenvalues --    1.90002   1.90004   1.90594   2.03484   2.03486
 Alpha virt. eigenvalues --    2.07994   2.77387   2.77387   2.80042   2.92231
 Alpha virt. eigenvalues --    3.06851   3.06852   3.26215   3.34560   3.35199
 Alpha virt. eigenvalues --    3.35201   3.37651   3.38433   3.38434   3.44024
 Alpha virt. eigenvalues --    3.48179   3.48181   3.72115   3.72116   3.72521
 Alpha virt. eigenvalues --    3.74427   3.74429   3.74784   3.87351   3.87353
 Alpha virt. eigenvalues --    3.95384   3.95384   4.02577   4.16192   4.16198
 Alpha virt. eigenvalues --    4.16315   4.18632   4.18636   4.25193   4.47577
 Alpha virt. eigenvalues --    4.47856   4.47857   4.64813   4.64815   4.70047
 Alpha virt. eigenvalues --    4.84309   4.99722   4.99728   5.05611   5.05612
 Alpha virt. eigenvalues --    5.21032   5.47597   5.47602   5.86775   5.92175
 Alpha virt. eigenvalues --    6.18806   6.18814  15.95261
  Beta  occ. eigenvalues --  -10.28794  -0.74684  -0.49404  -0.49402  -0.39788
  Beta virt. eigenvalues --   -0.00625   0.04073   0.05357   0.05357   0.06350
  Beta virt. eigenvalues --    0.13050   0.13050   0.13466   0.14224   0.19795
  Beta virt. eigenvalues --    0.19796   0.20574   0.20574   0.24232   0.28548
  Beta virt. eigenvalues --    0.28548   0.30481   0.33112   0.33112   0.34536
  Beta virt. eigenvalues --    0.35018   0.37745   0.38660   0.38728   0.38729
  Beta virt. eigenvalues --    0.41337   0.41338   0.46926   0.46927   0.48180
  Beta virt. eigenvalues --    0.60080   0.60081   0.60167   0.70195   0.75068
  Beta virt. eigenvalues --    0.75068   0.76173   0.76175   0.78317   0.78317
  Beta virt. eigenvalues --    0.81298   0.81665   0.88856   0.89824   0.89824
  Beta virt. eigenvalues --    0.90450   0.94059   0.94060   0.96042   0.96043
  Beta virt. eigenvalues --    0.99116   0.99143   0.99144   1.03207   1.06098
  Beta virt. eigenvalues --    1.06100   1.09634   1.09636   1.13213   1.15653
  Beta virt. eigenvalues --    1.15655   1.17945   1.31052   1.38308   1.38309
  Beta virt. eigenvalues --    1.48483   1.48486   1.51637   1.51756   1.51757
  Beta virt. eigenvalues --    1.53889   1.55059   1.75043   1.76157   1.76157
  Beta virt. eigenvalues --    1.90458   1.91149   1.91152   2.03710   2.03712
  Beta virt. eigenvalues --    2.10128   2.43037   2.78437   2.78438   2.85597
  Beta virt. eigenvalues --    2.94919   3.09526   3.09530   3.37442   3.37878
  Beta virt. eigenvalues --    3.37881   3.38163   3.42164   3.42166   3.48125
  Beta virt. eigenvalues --    3.49599   3.49602   3.66369   3.66370   3.72125
  Beta virt. eigenvalues --    3.72125   3.73673   3.73674   3.73876   3.75176
  Beta virt. eigenvalues --    3.83277   3.83277   3.84355   3.90884   3.96466
  Beta virt. eigenvalues --    3.96466   4.18036   4.19890   4.19893   4.47950
  Beta virt. eigenvalues --    4.47966   4.47966   4.65337   4.65339   4.69789
  Beta virt. eigenvalues --    4.85917   5.00184   5.00190   5.08075   5.08075
  Beta virt. eigenvalues --    5.22136   5.48377   5.48382   5.88346   5.93343
  Beta virt. eigenvalues --    6.19616   6.19625  15.97792
          Condensed to atoms (all electrons):
               1          2          3          4          5
     1  C    5.909229   0.356731   0.356658   0.356802   0.009654
     2  H    0.356731   0.299057   0.008577   0.008564  -0.001144
     3  H    0.356658   0.008577   0.299001   0.008564  -0.001149
     4  H    0.356802   0.008564   0.008564   0.299168  -0.001148
     5  H    0.009654  -0.001144  -0.001149  -0.001148   0.989324
          Atomic-Atomic Spin Densities.
               1          2          3          4          5
     1  C    0.974043   0.016264   0.016320   0.016216  -0.006270
     2  H    0.016264  -0.032323   0.003018   0.003027   0.001240
     3  H    0.016320   0.003018  -0.032284   0.003030   0.001245
     4  H    0.016216   0.003027   0.003030  -0.032414   0.001244
     5  H   -0.006270   0.001240   0.001245   0.001244  -0.987691
 Mulliken charges and spin densities:
               1          2
     1  C   -0.989075   1.016573
     2  H    0.328214  -0.008774
     3  H    0.328348  -0.008672
     4  H    0.328049  -0.008896
     5  H    0.004463  -0.990231
 Sum of Mulliken charges =  -0.00000   0.00000
 Mulliken charges and spin densities with hydrogens summed into heavy atoms:
               1          2
     1  C   -0.000000   0.000000
 Electronic spatial extent (au):  <R**2>=             69.7641
 Charge=             -0.0000 electrons
 Dipole moment (field-independent basis, Debye):
    X=              0.1230    Y=              0.4137    Z=              0.0752  Tot=              0.4381
 Quadrupole moment (field-independent basis, Debye-Ang):
   XX=             -8.8500   YY=            -10.2564   ZZ=             -8.7646
   XY=             -0.4585   XZ=             -0.0832   YZ=             -0.2805
 Traceless Quadrupole moment (field-independent basis, Debye-Ang):
   XX=              0.4403   YY=             -0.9661   ZZ=              0.5258
   XY=             -0.4585   XZ=             -0.0832   YZ=             -0.2805
 Octapole moment (field-independent basis, Debye-Ang**2):
  XXX=              3.9431  YYY=             12.5302  ZZZ=              3.1593  XYY=              1.0804
  XXY=              4.3753  XXZ=              0.0081  XZZ=              1.2352  YZZ=              4.1574
  YYZ=              0.6609  XYZ=              0.2129
 Hexadecapole moment (field-independent basis, Debye-Ang**3):
 XXXX=            -23.8091 YYYY=            -94.3149 ZZZZ=            -19.3873 XXXY=            -11.5005
 XXXZ=             -2.2777 YYYX=            -11.4803 YYYZ=             -7.0216 ZZZX=             -2.0431
 ZZZY=             -6.8756 XXYY=            -19.6932 XXZZ=             -7.3120 YYZZ=            -19.1246
 XXYZ=             -2.5133 YYXZ=             -0.5558 ZZXY=             -3.8503
 N-N= 1.112831079239D+01 E-N=-1.151304928315D+02  KE= 4.006101415066D+01
                          Isotropic Fermi Contact Couplings
        Atom                 a.u.       MegaHertz       Gauss      10(-4) cm-1
     1  C(13)              0.08009      45.01621      16.06290      15.01579
     2  H(1)              -0.01081     -24.15494      -8.61908      -8.05722
     3  H(1)              -0.01081     -24.15132      -8.61779      -8.05601
     4  H(1)              -0.01081     -24.16862      -8.62396      -8.06178
     5  H(1)              -0.28918    -646.30553    -230.61788    -215.58432
 --------------------------------------------------------
       Center         ----  Spin Dipole Couplings  ----
                      3XX-RR        3YY-RR        3ZZ-RR
 --------------------------------------------------------
     1   Atom       -0.411501      0.902807     -0.491305
     2   Atom       -0.065152     -0.010172      0.075324
     3   Atom        0.045519     -0.010173     -0.035346
     4   Atom        0.023499      0.011837     -0.035336
     5   Atom       -0.004898      0.010744     -0.005846
 --------------------------------------------------------
                        XY            XZ            YZ
 --------------------------------------------------------
     1   Atom        0.428602      0.077899      0.262037
     2   Atom        0.017929     -0.000766     -0.002579
     3   Atom        0.005866     -0.057442      0.017136
     4   Atom       -0.027849      0.057469     -0.017031
     5   Atom        0.005098      0.000926      0.003118
 --------------------------------------------------------


 ---------------------------------------------------------------------------------
              Anisotropic Spin Dipole Couplings in Principal Axis System
 ---------------------------------------------------------------------------------

       Atom             a.u.   MegaHertz   Gauss  10(-4) cm-1        Axes

              Baa    -0.5389   -72.319   -25.805   -24.123 -0.0140 -0.1748  0.9845
     1 C(13)  Bbb    -0.5389   -72.318   -25.805   -24.123  0.9597 -0.2788 -0.0358
              Bcc     1.0778   144.637    51.610    48.246  0.2807  0.9443  0.1716
 
              Baa    -0.0705   -37.606   -13.419   -12.544  0.9585 -0.2850 -0.0000
     2 H(1)   Bbb    -0.0049    -2.632    -0.939    -0.878  0.2848  0.9580  0.0335
              Bcc     0.0754    40.237    14.358    13.422 -0.0095 -0.0321  0.9994
 
              Baa    -0.0705   -37.606   -13.419   -12.544  0.4369 -0.2849  0.8532
     3 H(1)   Bbb    -0.0049    -2.633    -0.940    -0.878  0.1597  0.9580  0.2381
              Bcc     0.0754    40.239    14.358    13.422  0.8852 -0.0322 -0.4641
 
              Baa    -0.0705   -37.604   -13.418   -12.543 -0.5217  0.0000  0.8531
     4 H(1)   Bbb    -0.0049    -2.628    -0.938    -0.877  0.3897  0.8896  0.2383
              Bcc     0.0754    40.233    14.356    13.420  0.7589 -0.4568  0.4641
 
              Baa    -0.0064    -3.422    -1.221    -1.141  0.4936 -0.2954  0.8180
     5 H(1)   Bbb    -0.0064    -3.421    -1.221    -1.141  0.8232 -0.1448 -0.5490
              Bcc     0.0128     6.843     2.442     2.283  0.2806  0.9444  0.1716
 

 ---------------------------------------------------------------------------------

 DipInt: DoE/N= T T RetVal/Mat= T F Init=T NMatP=  1 IDeriv=0 Min/MaxMlt=  1  1
 Entering OneElI...
 Multipole integrals L=1 to 1 MinM= 0 MaxM= 0.
 Requested accuracy = 0.1000D-12
 PrsmSu:  NPrtUS=   1 ThrOK=F IAlg=1 NPAlg=1 LenDen=           0.
 Prism:   IPart=     0 DynPar=F LinDyn=F Incr=          12.
 PRISM was handed   419324200 working-precision words and  1275 shell-pairs
 IPart=  0 NShTot=        1275 NBatch=          40 AvBLen=        31.9
 PrSmSu:  NxtVal=             13.
 Entering OneElI...
 Calculate overlap and kinetic energy integrals
    NBasis = 155  MinDer = 1  MaxDer = 1
 Requested accuracy = 0.1000D-12
 PrsmSu:  NPrtUS=  32 ThrOK=T IAlg=1 NPAlg=1 LenDen=           0.
 Prism:   IPart=     0 DynPar=F LinDyn=F Incr=           1.
 PRISM was handed    13082659 working-precision words and  1275 shell-pairs
 PRISM was handed    13082659 working-precision words and  1275 shell-pairs
 PRISM was handed    13082659 working-precision words and  1275 shell-pairs
 PRISM was handed    13082659 working-precision words and  1275 shell-pairs
 PRISM was handed    13082659 working-precision words and  1275 shell-pairs
 PRISM was handed    13082659 working-precision words and  1275 shell-pairs
 PRISM was handed    13082659 working-precision words and  1275 shell-pairs
 PRISM was handed    13082659 working-precision words and  1275 shell-pairs
 PRISM was handed    13082659 working-precision words and  1275 shell-pairs
 PRISM was handed    13082659 working-precision words and  1275 shell-pairs
 PRISM was handed    13082659 working-precision words and  1275 shell-pairs
 PRISM was handed    13082659 working-precision words and  1275 shell-pairs
 PRISM was handed    13082659 working-precision words and  1275 shell-pairs
 PRISM was handed    13082659 working-precision words and  1275 shell-pairs
 PRISM was handed    13082659 working-precision words and  1275 shell-pairs
 PRISM was handed    13082659 working-precision words and  1275 shell-pairs
 PRISM was handed    13082659 working-precision words and  1275 shell-pairs
 PRISM was handed    13082659 working-precision words and  1275 shell-pairs
 PRISM was handed    13082659 working-precision words and  1275 shell-pairs
 PRISM was handed    13082659 working-precision words and  1275 shell-pairs
 PRISM was handed    13082659 working-precision words and  1275 shell-pairs
 PRISM was handed    13082659 working-precision words and  1275 shell-pairs
 PRISM was handed    13082659 working-precision words and  1275 shell-pairs
 PRISM was handed    13082659 working-precision words and  1275 shell-pairs
 PRISM was handed    13082659 working-precision words and  1275 shell-pairs
 PRISM was handed    13082659 working-precision words and  1275 shell-pairs
 PRISM was handed    13082659 working-precision words and  1275 shell-pairs
 PRISM was handed    13082659 working-precision words and  1275 shell-pairs
 PRISM was handed    13082659 working-precision words and  1275 shell-pairs
 PRISM was handed    13082659 working-precision words and  1275 shell-pairs
 PRISM was handed    13082659 working-precision words and  1275 shell-pairs
 PRISM was handed    13082659 working-precision words and  1275 shell-pairs
 IPart= 24 NShTot=          32 NBatch=          11 AvBLen=         2.9
 IPart= 10 NShTot=          45 NBatch=          20 AvBLen=         2.3
 IPart= 30 NShTot=          29 NBatch=           9 AvBLen=         3.2
 IPart= 17 NShTot=          35 NBatch=          12 AvBLen=         2.9
 IPart= 13 NShTot=          40 NBatch=          17 AvBLen=         2.4
 IPart=  7 NShTot=          46 NBatch=          21 AvBLen=         2.2
 IPart= 25 NShTot=          32 NBatch=          11 AvBLen=         2.9
 IPart= 26 NShTot=          32 NBatch=          11 AvBLen=         2.9
 IPart= 20 NShTot=          35 NBatch=          12 AvBLen=         2.9
 IPart=  8 NShTot=          45 NBatch=          20 AvBLen=         2.3
 IPart=  0 NShTot=          67 NBatch=          38 AvBLen=         1.8
 IPart= 28 NShTot=          31 NBatch=          11 AvBLen=         2.8
 IPart= 19 NShTot=          35 NBatch=          12 AvBLen=         2.9
 IPart=  5 NShTot=          46 NBatch=          21 AvBLen=         2.2
 IPart= 14 NShTot=          40 NBatch=          17 AvBLen=         2.4
 IPart=  2 NShTot=          55 NBatch=          28 AvBLen=         2.0
 IPart= 31 NShTot=          29 NBatch=           9 AvBLen=         3.2
 IPart= 29 NShTot=          31 NBatch=          11 AvBLen=         2.8
 IPart= 27 NShTot=          32 NBatch=          11 AvBLen=         2.9
 IPart= 21 NShTot=          35 NBatch=          12 AvBLen=         2.9
 IPart= 22 NShTot=          34 NBatch=          11 AvBLen=         3.1
 IPart=  4 NShTot=          48 NBatch=          21 AvBLen=         2.3
 IPart= 12 NShTot=          40 NBatch=          17 AvBLen=         2.4
 IPart= 23 NShTot=          34 NBatch=          11 AvBLen=         3.1
 IPart=  3 NShTot=          50 NBatch=          23 AvBLen=         2.2
 IPart=  1 NShTot=          59 NBatch=          31 AvBLen=         1.9
 IPart= 15 NShTot=          36 NBatch=          13 AvBLen=         2.8
 IPart=  9 NShTot=          45 NBatch=          20 AvBLen=         2.3
 IPart= 16 NShTot=          35 NBatch=          12 AvBLen=         2.9
 IPart=  6 NShTot=          46 NBatch=          21 AvBLen=         2.2
 IPart= 11 NShTot=          41 NBatch=          17 AvBLen=         2.4
 IPart= 18 NShTot=          35 NBatch=          12 AvBLen=         2.9
 PrSmSu:  NxtVal=             33.
 Entering OneElI...
 Calculate potential energy integrals
    NBasis = 155  MinDer = 1  MaxDer = 1
 Requested accuracy = 0.1000D-12
 PrsmSu:  NPrtUS=  32 ThrOK=T IAlg=1 NPAlg=1 LenDen=           0.
 Prism:   IPart=     0 DynPar=F LinDyn=F Incr=           1.
 PRISM was handed    13084325 working-precision words and  1259 shell-pairs
 PRISM was handed    13084325 working-precision words and  1259 shell-pairs
 PRISM was handed    13084325 working-precision words and  1259 shell-pairs
 PRISM was handed    13084325 working-precision words and  1259 shell-pairs
 PRISM was handed    13084325 working-precision words and  1259 shell-pairs
 PRISM was handed    13084325 working-precision words and  1259 shell-pairs
 PRISM was handed    13084325 working-precision words and  1259 shell-pairs
 PRISM was handed    13084325 working-precision words and  1259 shell-pairs
 PRISM was handed    13084325 working-precision words and  1259 shell-pairs
 PRISM was handed    13084325 working-precision words and  1259 shell-pairs
 PRISM was handed    13084325 working-precision words and  1259 shell-pairs
 PRISM was handed    13084325 working-precision words and  1259 shell-pairs
 PRISM was handed    13084325 working-precision words and  1259 shell-pairs
 PRISM was handed    13084325 working-precision words and  1259 shell-pairs
 PRISM was handed    13084325 working-precision words and  1259 shell-pairs
 PRISM was handed    13084325 working-precision words and  1259 shell-pairs
 PRISM was handed    13084325 working-precision words and  1259 shell-pairs
 PRISM was handed    13084325 working-precision words and  1259 shell-pairs
 PRISM was handed    13084325 working-precision words and  1259 shell-pairs
 PRISM was handed    13084325 working-precision words and  1259 shell-pairs
 PRISM was handed    13084325 working-precision words and  1259 shell-pairs
 PRISM was handed    13084325 working-precision words and  1259 shell-pairs
 PRISM was handed    13084325 working-precision words and  1259 shell-pairs
 PRISM was handed    13084325 working-precision words and  1259 shell-pairs
 PRISM was handed    13084325 working-precision words and  1259 shell-pairs
 PRISM was handed    13084325 working-precision words and  1259 shell-pairs
 PRISM was handed    13084325 working-precision words and  1259 shell-pairs
 PRISM was handed    13084325 working-precision words and  1259 shell-pairs
 PRISM was handed    13084325 working-precision words and  1259 shell-pairs
 PRISM was handed    13084325 working-precision words and  1259 shell-pairs
 PRISM was handed    13084325 working-precision words and  1259 shell-pairs
 PRISM was handed    13084325 working-precision words and  1259 shell-pairs
 IPart= 16 NShTot=         175 NBatch=          35 AvBLen=         5.0
 IPart= 18 NShTot=         175 NBatch=          35 AvBLen=         5.0
 IPart= 11 NShTot=         205 NBatch=          41 AvBLen=         5.0
 IPart= 15 NShTot=         175 NBatch=          35 AvBLen=         5.0
 IPart=  9 NShTot=         220 NBatch=          44 AvBLen=         5.0
 IPart=  6 NShTot=         225 NBatch=          45 AvBLen=         5.0
 IPart=  4 NShTot=         235 NBatch=          47 AvBLen=         5.0
 IPart=  3 NShTot=         240 NBatch=          48 AvBLen=         5.0
 IPart= 25 NShTot=         165 NBatch=          33 AvBLen=         5.0
 IPart= 17 NShTot=         175 NBatch=          35 AvBLen=         5.0
 IPart= 23 NShTot=         165 NBatch=          33 AvBLen=         5.0
 IPart= 10 NShTot=         205 NBatch=          41 AvBLen=         5.0
 IPart= 27 NShTot=         165 NBatch=          33 AvBLen=         5.0
 IPart= 22 NShTot=         165 NBatch=          33 AvBLen=         5.0
 IPart= 13 NShTot=         200 NBatch=          40 AvBLen=         5.0
 IPart= 12 NShTot=         205 NBatch=          41 AvBLen=         5.0
 IPart= 31 NShTot=         145 NBatch=          29 AvBLen=         5.0
 IPart= 29 NShTot=         155 NBatch=          31 AvBLen=         5.0
 IPart= 30 NShTot=         145 NBatch=          29 AvBLen=         5.0
 IPart=  0 NShTot=         330 NBatch=          66 AvBLen=         5.0
 IPart=  8 NShTot=         220 NBatch=          44 AvBLen=         5.0
 IPart=  5 NShTot=         225 NBatch=          45 AvBLen=         5.0
 IPart=  2 NShTot=         270 NBatch=          54 AvBLen=         5.0
 IPart=  7 NShTot=         225 NBatch=          45 AvBLen=         5.0
 IPart= 20 NShTot=         175 NBatch=          35 AvBLen=         5.0
 IPart= 28 NShTot=         155 NBatch=          31 AvBLen=         5.0
 IPart= 24 NShTot=         165 NBatch=          33 AvBLen=         5.0
 IPart= 19 NShTot=         175 NBatch=          35 AvBLen=         5.0
 IPart=  1 NShTot=         290 NBatch=          58 AvBLen=         5.0
 IPart= 14 NShTot=         185 NBatch=          37 AvBLen=         5.0
 IPart= 21 NShTot=         175 NBatch=          35 AvBLen=         5.0
 IPart= 26 NShTot=         165 NBatch=          33 AvBLen=         5.0
 PrSmSu:  NxtVal=             33.
 l701 out
 I=    0 X=   4.838511348089D-02 Y=   1.627700425591D-01 Z=   2.958665573296D-02
 I=    1 X=  -3.101816135876D-01 Y=  -1.043808210378D+00 Z=  -1.895593858654D-01
 I=    2 X=   1.411921200895D-02 Y=   4.760669359222D-02 Z=   2.343969454231D+00
 I=    3 X=   2.092611391113D+00 Y=   4.764349360845D-02 Z=  -1.055694508183D+00
 I=    4 X=  -1.726844456938D+00 Y=   1.183113434772D+00 Z=  -1.056086743570D+00
 I=    5 X=  -6.970453259588D-02 Y=  -2.345554115949D-01 Z=  -4.262881661213D-02
 ICntrl=      2127.
 Calling FoFJK, ICntrl=      2127 FMM=F ISym2X=0 I1Cent= 0 IOpClX= 1 NMat=1 NMatS=1 NMatT=0.
 FoFJK:  IHMeth= 1 ICntrl=    2127 DoSepK=T KAlg= 0 I1Cent=   0 FoldK=F
 IRaf=         1 NMat=   1 IRICut=       1 DoRegI=T DoRafI=F ISym2E= 0.
 FoFCou: FMM=F IPFlag=           0 FMFlag=      100000 FMFlg1=         800
         NFxFlg=           0 DoJE=F BraDBF=F KetDBF=F FulRan=T
         wScrn=  0.000000 ICntrl=    2527 IOpCl=  0 I1Cent=           0 NGrid=           0
         NMat0=    1 NMatS0=      1 NMatT0=    0 NMatD0=    1 NMtDS0=    0 NMtDT0=    0
 Symmetry not used in FoFCou.
 FoFCou:  KetSym=F NOpSet=  1 NOpAb=1 NOp=  1.
 FoFCou:  CnvScl= 1.00D+00 Thresh= 1.00D-10 IAcrcy=      10.
 PrismS was handed   419299197 working-precision words and  1274 shell-pairs
 FoFCou: LinMIO=F DoNuc=F BraDBF=F KetDBF=F HaveP=T PDBF=F HaveZ=T HaveW=F
         NIJTC =      10 NIJTAt=       0 NIJTCD=       0 NIJTT =      10
         IJTBeg=       1 IJTEnd=      10 KLTBeg=       1 KLTEnd=      10
         IPTBeg=       1 IPTEnd=      10 IPTBCv=       1 IPTECv=      10
         IZTBeg=       1 IZTEnd=      10 IZTBCv=       1 IZTECv=      10
         IWTBeg=      11 IWTEnd=      10 IWTBCv=      11 IWTECv=      10
         INTBeg=       1 INTEnd=       0 IFTBCv=       1 IFTECv=      10
 NCel replicated for PrismC:     1
 CoulSu:  IncDef=  1024 NBBP=         812175 NTPThr=   100 NPartT=   32 Incr=         253 LDynOK=F.
 CoulSu:  NPrtUS=  32 ThrOK=T IAlg=1 NPAlg=1 LenDen=           0 LWGrdD=           0 DoCopy=F.
 Enter PrismC: JobTyp=21 DoJE=F Cont=F.
 Enter PrismC: JobTyp=21 DoJE=F Cont=F.
 PrismC:  IPart=     0 DynPar=T LinDyn=F Incr=         253 UseFst=F UseS4=T IGathr=2.
 PrismC was handed    13083331 working-precision words and  1274 shell-pairs
 Enter PrismC: JobTyp=21 DoJE=F Cont=F.
 Enter PrismC: JobTyp=21 DoJE=F Cont=F.
 Enter PrismC: JobTyp=21 DoJE=F Cont=F.
 Enter PrismC: JobTyp=21 DoJE=F Cont=F.
 Enter PrismC: JobTyp=21 DoJE=F Cont=F.
 Enter PrismC: JobTyp=21 DoJE=F Cont=F.
 Enter PrismC: JobTyp=21 DoJE=F Cont=F.
 Enter PrismC: JobTyp=21 DoJE=F Cont=F.
 Enter PrismC: JobTyp=21 DoJE=F Cont=F.
 Enter PrismC: JobTyp=21 DoJE=F Cont=F.
 Enter PrismC: JobTyp=21 DoJE=F Cont=F.
 Enter PrismC: JobTyp=21 DoJE=F Cont=F.
 Enter PrismC: JobTyp=21 DoJE=F Cont=F.
 Enter PrismC: JobTyp=21 DoJE=F Cont=F.
 Enter PrismC: JobTyp=21 DoJE=F Cont=F.
 Enter PrismC: JobTyp=21 DoJE=F Cont=F.
 Enter PrismC: JobTyp=21 DoJE=F Cont=F.
 PrismC was handed    13083331 working-precision words and  1274 shell-pairs
 Enter PrismC: JobTyp=21 DoJE=F Cont=F.
 PrismC was handed    13083331 working-precision words and  1274 shell-pairs
 Enter PrismC: JobTyp=21 DoJE=F Cont=F.
 PrismC was handed    13083331 working-precision words and  1274 shell-pairs
 Enter PrismC: JobTyp=21 DoJE=F Cont=F.
 PrismC was handed    13083331 working-precision words and  1274 shell-pairs
 Enter PrismC: JobTyp=21 DoJE=F Cont=F.
 PrismC was handed    13083331 working-precision words and  1274 shell-pairs
 Enter PrismC: JobTyp=21 DoJE=F Cont=F.
 PrismC was handed    13083331 working-precision words and  1274 shell-pairs
 Enter PrismC: JobTyp=21 DoJE=F Cont=F.
 PrismC was handed    13083331 working-precision words and  1274 shell-pairs
 Enter PrismC: JobTyp=21 DoJE=F Cont=F.
 PrismC was handed    13083331 working-precision words and  1274 shell-pairs
 Enter PrismC: JobTyp=21 DoJE=F Cont=F.
 PrismC was handed    13083331 working-precision words and  1274 shell-pairs
 Enter PrismC: JobTyp=21 DoJE=F Cont=F.
 PrismC was handed    13083331 working-precision words and  1274 shell-pairs
 Enter PrismC: JobTyp=21 DoJE=F Cont=F.
 Enter PrismC: JobTyp=21 DoJE=F Cont=F.
 PrismC was handed    13083331 working-precision words and  1274 shell-pairs
 Enter PrismC: JobTyp=21 DoJE=F Cont=F.
 PrismC was handed    13083331 working-precision words and  1274 shell-pairs
 Enter PrismC: JobTyp=21 DoJE=F Cont=F.
 PrismC was handed    13083331 working-precision words and  1274 shell-pairs
 PrismC was handed    13083331 working-precision words and  1274 shell-pairs
 PrismC was handed    13083331 working-precision words and  1274 shell-pairs
 PrismC was handed    13083331 working-precision words and  1274 shell-pairs
 PrismC was handed    13083331 working-precision words and  1274 shell-pairs
 PrismC was handed    13083331 working-precision words and  1274 shell-pairs
 PrismC was handed    13083331 working-precision words and  1274 shell-pairs
 PrismC was handed    13083331 working-precision words and  1274 shell-pairs
 PrismC was handed    13083331 working-precision words and  1274 shell-pairs
 PrismC was handed    13083331 working-precision words and  1274 shell-pairs
 PrismC was handed    13083331 working-precision words and  1274 shell-pairs
 PrismC was handed    13083331 working-precision words and  1274 shell-pairs
 PrismC was handed    13083331 working-precision words and  1274 shell-pairs
 PrismC was handed    13083331 working-precision words and  1274 shell-pairs
 PrismC was handed    13083331 working-precision words and  1274 shell-pairs
 PrismC was handed    13083331 working-precision words and  1274 shell-pairs
 PrismC was handed    13083331 working-precision words and  1274 shell-pairs
 PrismC was handed    13083331 working-precision words and  1274 shell-pairs
 PrismC was handed    13083331 working-precision words and  1274 shell-pairs
 IPart=  9 NShTot=       24902 NShNF=       24902 NShFF=           0 NBatch=         254 AvBLen=        98.0
 IPart= 29 NShTot=       24974 NShNF=       24974 NShFF=           0 NBatch=         251 AvBLen=        99.5
 IPart= 16 NShTot=       25501 NShNF=       25501 NShFF=           0 NBatch=         257 AvBLen=        99.2
 IPart=  7 NShTot=       25024 NShNF=       25024 NShFF=           0 NBatch=         252 AvBLen=        99.3
 IPart=  2 NShTot=       24079 NShNF=       24079 NShFF=           0 NBatch=         249 AvBLen=        96.7
 IPart=  3 NShTot=       25902 NShNF=       25902 NShFF=           0 NBatch=         256 AvBLen=       101.2
 IPart= 25 NShTot=       22337 NShNF=       22337 NShFF=           0 NBatch=         227 AvBLen=        98.4
 IPart= 19 NShTot=       22419 NShNF=       22419 NShFF=           0 NBatch=         259 AvBLen=        86.6
 IPart=  0 NShTot=       23287 NShNF=       23287 NShFF=           0 NBatch=         200 AvBLen=       116.4
 IPart= 20 NShTot=       23889 NShNF=       23889 NShFF=           0 NBatch=         191 AvBLen=       125.1
 IPart= 26 NShTot=       24943 NShNF=       24943 NShFF=           0 NBatch=         255 AvBLen=        97.8
 IPart=  8 NShTot=       19779 NShNF=       19779 NShFF=           0 NBatch=         227 AvBLen=        87.1
 IPart= 31 NShTot=       23693 NShNF=       23693 NShFF=           0 NBatch=         215 AvBLen=       110.2
 IPart=  4 NShTot=       28313 NShNF=       28313 NShFF=           0 NBatch=         252 AvBLen=       112.4
 IPart= 22 NShTot=       26951 NShNF=       26951 NShFF=           0 NBatch=         246 AvBLen=       109.6
 IPart=  1 NShTot=       25672 NShNF=       25672 NShFF=           0 NBatch=         216 AvBLen=       118.9
 IPart=  5 NShTot=       20338 NShNF=       20338 NShFF=           0 NBatch=         222 AvBLen=        91.6
 IPart= 23 NShTot=       19784 NShNF=       19784 NShFF=           0 NBatch=         224 AvBLen=        88.3
 IPart= 10 NShTot=       19747 NShNF=       19747 NShFF=           0 NBatch=         210 AvBLen=        94.0
 IPart= 11 NShTot=       28004 NShNF=       28004 NShFF=           0 NBatch=         255 AvBLen=       109.8
 IPart= 30 NShTot=       22636 NShNF=       22636 NShFF=           0 NBatch=         260 AvBLen=        87.1
 IPart= 17 NShTot=       22033 NShNF=       22033 NShFF=           0 NBatch=         238 AvBLen=        92.6
 IPart= 27 NShTot=       26493 NShNF=       26493 NShFF=           0 NBatch=         263 AvBLen=       100.7
 IPart= 15 NShTot=       25759 NShNF=       25759 NShFF=           0 NBatch=         252 AvBLen=       102.2
 IPart= 12 NShTot=       24173 NShNF=       24173 NShFF=           0 NBatch=         252 AvBLen=        95.9
 IPart= 28 NShTot=       21533 NShNF=       21533 NShFF=           0 NBatch=         233 AvBLen=        92.4
 IPart= 24 NShTot=       23703 NShNF=       23703 NShFF=           0 NBatch=         237 AvBLen=       100.0
 IPart= 21 NShTot=       27820 NShNF=       27820 NShFF=           0 NBatch=         262 AvBLen=       106.2
 IPart= 13 NShTot=       24769 NShNF=       24769 NShFF=           0 NBatch=         271 AvBLen=        91.4
 IPart= 14 NShTot=       19919 NShNF=       19919 NShFF=           0 NBatch=         214 AvBLen=        93.1
 IPart=  6 NShTot=       23567 NShNF=       23567 NShFF=           0 NBatch=         253 AvBLen=        93.2
 IPart= 18 NShTot=       15427 NShNF=       15427 NShFF=           0 NBatch=         176 AvBLen=        87.7
 CoulSu:  NxtVal=         898657.
 FoFCou: FMM=F IPFlag=           0 FMFlag=      100000 FMFlg1=         800
         NFxFlg=           0 DoJE=F BraDBF=F KetDBF=F FulRan=T
         wScrn=  0.000000 ICntrl=    2127 IOpCl=  1 I1Cent=           0 NGrid=           0
         NMat0=    1 NMatS0=      0 NMatT0=    1 NMatD0=    1 NMtDS0=    0 NMtDT0=    0
         CW=    0.222036    0.777964
         WU=    0.000000   12.500000
 Symmetry not used in FoFCou.
 FoFCou:  KetSym=F NOpSet=  1 NOpAb=1 NOp=  1.
 FoFCou:  CnvScl= 1.00D+00 Thresh= 1.00D-10 IAcrcy=      10.
 PrismS was handed   419297957 working-precision words and  1274 shell-pairs
 FoFCou: LinMIO=F DoNuc=F BraDBF=F KetDBF=F HaveP=T PDBF=F HaveZ=T HaveW=F
         NIJTC =      10 NIJTAt=       0 NIJTCD=       0 NIJTT =      10
         IJTBeg=       1 IJTEnd=      10 KLTBeg=       1 KLTEnd=      10
         IPTBeg=       1 IPTEnd=      10 IPTBCv=       1 IPTECv=      10
         IZTBeg=       1 IZTEnd=      10 IZTBCv=       1 IZTECv=      10
         IWTBeg=      11 IWTEnd=      10 IWTBCv=      11 IWTECv=      10
         INTBeg=       1 INTEnd=       0 IFTBCv=       1 IFTECv=      10
 NCel replicated for PrismC:     1
 CoulSu:  IncDef=  1024 NBBP=         812175 NTPThr=   100 NPartT=   32 Incr=         253 LDynOK=F.
 CoulSu:  NPrtUS=  32 ThrOK=T IAlg=1 NPAlg=1 LenDen=           0 LWGrdD=           0 DoCopy=F.
 Enter PrismC: JobTyp=21 DoJE=F Cont=F.
 Linear combination for Coulomb/exchange, wScrn=  0.000000
 CW=    0.222036    0.777964
 Enter PrismC: JobTyp=21 DoJE=F Cont=F.
 Enter PrismC: JobTyp=21 DoJE=F Cont=F.
 Enter PrismC: JobTyp=21 DoJE=F Cont=F.
 Enter PrismC: JobTyp=21 DoJE=F Cont=F.
 Linear combination for Coulomb/exchange, wScrn=  0.000000
 CW=    0.222036    0.777964
 WU=    0.000000   12.500000
 Linear combination for Coulomb/exchange, wScrn=  0.000000
 CW=    0.222036    0.777964
 WU=    0.000000   12.500000
 Enter PrismC: JobTyp=21 DoJE=F Cont=F.
 Linear combination for Coulomb/exchange, wScrn=  0.000000
 CW=    0.222036    0.777964
 WU=    0.000000   12.500000
 Enter PrismC: JobTyp=21 DoJE=F Cont=F.
 Linear combination for Coulomb/exchange, wScrn=  0.000000
 CW=    0.222036    0.777964
 WU=    0.000000   12.500000
 PrismC was handed    13083292 working-precision words and  1274 shell-pairs
 Enter PrismC: JobTyp=21 DoJE=F Cont=F.
 Linear combination for Coulomb/exchange, wScrn=  0.000000
 CW=    0.222036    0.777964
 WU=    0.000000   12.500000
 Enter PrismC: JobTyp=21 DoJE=F Cont=F.
 Linear combination for Coulomb/exchange, wScrn=  0.000000
 CW=    0.222036    0.777964
 WU=    0.000000   12.500000
 Enter PrismC: JobTyp=21 DoJE=F Cont=F.
 Linear combination for Coulomb/exchange, wScrn=  0.000000
 CW=    0.222036    0.777964
 WU=    0.000000   12.500000
 Enter PrismC: JobTyp=21 DoJE=F Cont=F.
 Linear combination for Coulomb/exchange, wScrn=  0.000000
 CW=    0.222036    0.777964
 WU=    0.000000   12.500000
 Enter PrismC: JobTyp=21 DoJE=F Cont=F.
 Linear combination for Coulomb/exchange, wScrn=  0.000000
 CW=    0.222036    0.777964
 WU=    0.000000   12.500000
 Enter PrismC: JobTyp=21 DoJE=F Cont=F.
 Linear combination for Coulomb/exchange, wScrn=  0.000000
 CW=    0.222036    0.777964
 WU=    0.000000   12.500000
 Enter PrismC: JobTyp=21 DoJE=F Cont=F.
 Linear combination for Coulomb/exchange, wScrn=  0.000000
 CW=    0.222036    0.777964
 WU=    0.000000   12.500000
 Enter PrismC: JobTyp=21 DoJE=F Cont=F.
 Linear combination for Coulomb/exchange, wScrn=  0.000000
 CW=    0.222036    0.777964
 WU=    0.000000   12.500000
 Enter PrismC: JobTyp=21 DoJE=F Cont=F.
 Linear combination for Coulomb/exchange, wScrn=  0.000000
 CW=    0.222036    0.777964
 WU=    0.000000   12.500000
 Enter PrismC: JobTyp=21 DoJE=F Cont=F.
 Linear combination for Coulomb/exchange, wScrn=  0.000000
 CW=    0.222036    0.777964
 WU=    0.000000   12.500000
 Enter PrismC: JobTyp=21 DoJE=F Cont=F.
 Linear combination for Coulomb/exchange, wScrn=  0.000000
 CW=    0.222036    0.777964
 WU=    0.000000   12.500000
 Linear combination for Coulomb/exchange, wScrn=  0.000000
 CW=    0.222036    0.777964
 WU=    0.000000   12.500000
 Enter PrismC: JobTyp=21 DoJE=F Cont=F.
 Linear combination for Coulomb/exchange, wScrn=  0.000000
 CW=    0.222036    0.777964
 WU=    0.000000   12.500000
 Linear combination for Coulomb/exchange, wScrn=  0.000000
 CW=    0.222036    0.777964
 WU=    0.000000   12.500000
 PrismC was handed    13083292 working-precision words and  1274 shell-pairs
 Enter PrismC: JobTyp=21 DoJE=F Cont=F.
 Linear combination for Coulomb/exchange, wScrn=  0.000000
 CW=    0.222036    0.777964
 WU=    0.000000   12.500000
 Enter PrismC: JobTyp=21 DoJE=F Cont=F.
 Linear combination for Coulomb/exchange, wScrn=  0.000000
 CW=    0.222036    0.777964
 WU=    0.000000   12.500000
 Enter PrismC: JobTyp=21 DoJE=F Cont=F.
 Linear combination for Coulomb/exchange, wScrn=  0.000000
 CW=    0.222036    0.777964
 WU=    0.000000   12.500000
 Enter PrismC: JobTyp=21 DoJE=F Cont=F.
 Linear combination for Coulomb/exchange, wScrn=  0.000000
 CW=    0.222036    0.777964
 WU=    0.000000   12.500000
 Enter PrismC: JobTyp=21 DoJE=F Cont=F.
 Linear combination for Coulomb/exchange, wScrn=  0.000000
 CW=    0.222036    0.777964
 WU=    0.000000   12.500000
 WU=    0.000000   12.500000
 PrismC was handed    13083292 working-precision words and  1274 shell-pairs
 PrismC was handed    13083292 working-precision words and  1274 shell-pairs
 Enter PrismC: JobTyp=21 DoJE=F Cont=F.
 Linear combination for Coulomb/exchange, wScrn=  0.000000
 CW=    0.222036    0.777964
 WU=    0.000000   12.500000
 PrismC was handed    13083292 working-precision words and  1274 shell-pairs
 Enter PrismC: JobTyp=21 DoJE=F Cont=F.
 Linear combination for Coulomb/exchange, wScrn=  0.000000
 CW=    0.222036    0.777964
 WU=    0.000000   12.500000
 PrismC was handed    13083292 working-precision words and  1274 shell-pairs
 PrismC was handed    13083292 working-precision words and  1274 shell-pairs
 Enter PrismC: JobTyp=21 DoJE=F Cont=F.
 Linear combination for Coulomb/exchange, wScrn=  0.000000
 CW=    0.222036    0.777964
 WU=    0.000000   12.500000
 PrismC was handed    13083292 working-precision words and  1274 shell-pairs
 Enter PrismC: JobTyp=21 DoJE=F Cont=F.
 Linear combination for Coulomb/exchange, wScrn=  0.000000
 CW=    0.222036    0.777964
 WU=    0.000000   12.500000
 Enter PrismC: JobTyp=21 DoJE=F Cont=F.
 Linear combination for Coulomb/exchange, wScrn=  0.000000
 CW=    0.222036    0.777964
 WU=    0.000000   12.500000
 Enter PrismC: JobTyp=21 DoJE=F Cont=F.
 Linear combination for Coulomb/exchange, wScrn=  0.000000
 CW=    0.222036    0.777964
 WU=    0.000000   12.500000
 PrismC was handed    13083292 working-precision words and  1274 shell-pairs
 PrismC was handed    13083292 working-precision words and  1274 shell-pairs
 PrismC was handed    13083292 working-precision words and  1274 shell-pairs
 PrismC was handed    13083292 working-precision words and  1274 shell-pairs
 PrismC was handed    13083292 working-precision words and  1274 shell-pairs
 PrismC was handed    13083292 working-precision words and  1274 shell-pairs
 Enter PrismC: JobTyp=21 DoJE=F Cont=F.
 Linear combination for Coulomb/exchange, wScrn=  0.000000
 CW=    0.222036    0.777964
 WU=    0.000000   12.500000
 PrismC was handed    13083292 working-precision words and  1274 shell-pairs
 PrismC was handed    13083292 working-precision words and  1274 shell-pairs
 PrismC was handed    13083292 working-precision words and  1274 shell-pairs
 PrismC was handed    13083292 working-precision words and  1274 shell-pairs
 PrismC was handed    13083292 working-precision words and  1274 shell-pairs
 PrismC was handed    13083292 working-precision words and  1274 shell-pairs
 PrismC was handed    13083292 working-precision words and  1274 shell-pairs
 PrismC was handed    13083292 working-precision words and  1274 shell-pairs
 PrismC was handed    13083292 working-precision words and  1274 shell-pairs
 PrismC was handed    13083292 working-precision words and  1274 shell-pairs
 PrismC was handed    13083292 working-precision words and  1274 shell-pairs
 PrismC was handed    13083292 working-precision words and  1274 shell-pairs
 PrismC:  IPart=     0 DynPar=T LinDyn=F Incr=         253 UseFst=F UseS4=T IGathr=2.
 PrismC was handed    13083292 working-precision words and  1274 shell-pairs
 PrismC was handed    13083292 working-precision words and  1274 shell-pairs
 Enter PrismC: JobTyp=21 DoJE=F Cont=F.
 Linear combination for Coulomb/exchange, wScrn=  0.000000
 CW=    0.222036    0.777964
 WU=    0.000000   12.500000
 PrismC was handed    13083292 working-precision words and  1274 shell-pairs
 PrismC was handed    13083292 working-precision words and  1274 shell-pairs
 PrismC was handed    13083292 working-precision words and  1274 shell-pairs
 PrismC was handed    13083292 working-precision words and  1274 shell-pairs
 IPart=  9 NShTot=       22961 NShNF=       22961 NShFF=           0 NBatch=         324 AvBLen=        70.9
 IPart= 10 NShTot=       23313 NShNF=       23313 NShFF=           0 NBatch=         284 AvBLen=        82.1
 IPart= 19 NShTot=       24633 NShNF=       24633 NShFF=           0 NBatch=         271 AvBLen=        90.9
 IPart= 29 NShTot=       21155 NShNF=       21155 NShFF=           0 NBatch=         263 AvBLen=        80.4
 IPart=  0 NShTot=       24376 NShNF=       24376 NShFF=           0 NBatch=         314 AvBLen=        77.6
 IPart= 27 NShTot=       23612 NShNF=       23612 NShFF=           0 NBatch=         299 AvBLen=        79.0
 IPart= 20 NShTot=       27148 NShNF=       27148 NShFF=           0 NBatch=         318 AvBLen=        85.4
 IPart= 18 NShTot=       22230 NShNF=       22230 NShFF=           0 NBatch=         235 AvBLen=        94.6
 IPart= 15 NShTot=       25007 NShNF=       25007 NShFF=           0 NBatch=         317 AvBLen=        78.9
 IPart= 11 NShTot=       23238 NShNF=       23238 NShFF=           0 NBatch=         326 AvBLen=        71.3
 IPart= 13 NShTot=       24593 NShNF=       24593 NShFF=           0 NBatch=         316 AvBLen=        77.8
 IPart=  2 NShTot=       22911 NShNF=       22911 NShFF=           0 NBatch=         323 AvBLen=        70.9
 IPart=  5 NShTot=       25337 NShNF=       25337 NShFF=           0 NBatch=         307 AvBLen=        82.5
 IPart=  6 NShTot=       22805 NShNF=       22805 NShFF=           0 NBatch=         249 AvBLen=        91.6
 IPart= 26 NShTot=       24881 NShNF=       24881 NShFF=           0 NBatch=         280 AvBLen=        88.9
 IPart= 31 NShTot=       24192 NShNF=       24192 NShFF=           0 NBatch=         272 AvBLen=        88.9
 IPart= 28 NShTot=       23432 NShNF=       23432 NShFF=           0 NBatch=         297 AvBLen=        78.9
 IPart= 17 NShTot=       24004 NShNF=       24004 NShFF=           0 NBatch=         320 AvBLen=        75.0
 IPart= 14 NShTot=       22808 NShNF=       22808 NShFF=           0 NBatch=         284 AvBLen=        80.3
 IPart=  3 NShTot=       23706 NShNF=       23706 NShFF=           0 NBatch=         274 AvBLen=        86.5
 IPart= 21 NShTot=       18164 NShNF=       18164 NShFF=           0 NBatch=         228 AvBLen=        79.7
 IPart=  4 NShTot=       24524 NShNF=       24524 NShFF=           0 NBatch=         237 AvBLen=       103.5
 IPart= 24 NShTot=       25813 NShNF=       25813 NShFF=           0 NBatch=         321 AvBLen=        80.4
 IPart= 30 NShTot=       26678 NShNF=       26678 NShFF=           0 NBatch=         319 AvBLen=        83.6
 IPart= 12 NShTot=       21442 NShNF=       21442 NShFF=           0 NBatch=         169 AvBLen=       126.9
 IPart= 22 NShTot=       24811 NShNF=       24811 NShFF=           0 NBatch=         277 AvBLen=        89.6
 IPart=  7 NShTot=       23446 NShNF=       23446 NShFF=           0 NBatch=         305 AvBLen=        76.9
 IPart= 25 NShTot=       23828 NShNF=       23828 NShFF=           0 NBatch=         274 AvBLen=        87.0
 IPart= 16 NShTot=       19927 NShNF=       19927 NShFF=           0 NBatch=         254 AvBLen=        78.5
 IPart=  8 NShTot=       22204 NShNF=       22204 NShFF=           0 NBatch=         219 AvBLen=       101.4
 IPart= 23 NShTot=       28610 NShNF=       28610 NShFF=           0 NBatch=         272 AvBLen=       105.2
 IPart=  1 NShTot=       22710 NShNF=       22710 NShFF=           0 NBatch=         295 AvBLen=        77.0
 CoulSu:  NxtVal=         898657.
 ReadGW:  IGet=0 IStart=           1 Next=           1 LGW=           0.
 Remaining memory in FofDFT      399.95 Mw
 CkSvGd:  ISavGI=        -1 IRadAn=       5 IRASav=       5 ISavGd=        -1.
 CalDSu:  NPrtUS=  32 ThrOK=T IAlg=1 NPAlg=2 DoDPD=T LenP=       12090 LenD1P=             0.
 IPart=  0 IRanGd=          0 ScrnBf=T ScrnGd=T RCrit=4.00D+00 DoMicB=T.
 IPart= 24         3423 of         3870 points in       5 batches and       30 microbatches, Max-NSigAt=       5 Max-NSgAt2=       5
 IPart=  1         3336 of         3596 points in       4 batches and        8 microbatches, Max-NSigAt=       5 Max-NSgAt2=       5
 IPart= 31         3142 of         3624 points in       5 batches and       45 microbatches, Max-NSigAt=       5 Max-NSgAt2=       5
 IPart=  4         2798 of         2964 points in       3 batches and       19 microbatches, Max-NSigAt=       5 Max-NSgAt2=       5
 IPart=  8         2971 of         3364 points in       4 batches and       35 microbatches, Max-NSigAt=       5 Max-NSgAt2=       5
 IPart= 30         2767 of         2964 points in       3 batches and       26 microbatches, Max-NSigAt=       5 Max-NSgAt2=       5
 IPart=  9         3331 of         3568 points in       4 batches and       28 microbatches, Max-NSigAt=       5 Max-NSgAt2=       5
 IPart= 21         2631 of         2642 points in       2 batches and        6 microbatches, Max-NSigAt=       5 Max-NSgAt2=       5
 IPart= 20         2699 of         2732 points in       2 batches and        9 microbatches, Max-NSigAt=       5 Max-NSgAt2=       5
 IPart= 12         2679 of         2964 points in       3 batches and       25 microbatches, Max-NSigAt=       5 Max-NSgAt2=       5
 IPart= 10         2674 of         2964 points in       3 batches and       25 microbatches, Max-NSigAt=       5 Max-NSgAt2=       5
 IPart=  3         3468 of         3764 points in       4 batches and       34 microbatches, Max-NSigAt=       5 Max-NSgAt2=       5
 IPart= 16         2865 of         3034 points in       3 batches and        9 microbatches, Max-NSigAt=       5 Max-NSgAt2=       5
 IPart=  0         2379 of         2384 points in       2 batches and        7 microbatches, Max-NSigAt=       5 Max-NSgAt2=       5
 IPart= 23         3394 of         3592 points in       4 batches and       31 microbatches, Max-NSigAt=       5 Max-NSgAt2=       5
 IPart= 22         3263 of         3568 points in       4 batches and       41 microbatches, Max-NSigAt=       5 Max-NSgAt2=       5
 IPart= 19         3589 of         3774 points in       4 batches and       19 microbatches, Max-NSigAt=       5 Max-NSgAt2=       5
 IPart= 15         3625 of         3792 points in       4 batches and       15 microbatches, Max-NSigAt=       5 Max-NSgAt2=       5
 IPart= 13         3988 of         4368 points in       5 batches and       26 microbatches, Max-NSigAt=       5 Max-NSgAt2=       5
 IPart= 29         3974 of         4172 points in       4 batches and       10 microbatches, Max-NSigAt=       5 Max-NSgAt2=       5
 IPart= 27         3814 of         3850 points in       3 batches and       11 microbatches, Max-NSigAt=       5 Max-NSgAt2=       5
 IPart=  5         3824 of         4172 points in       5 batches and       24 microbatches, Max-NSigAt=       5 Max-NSgAt2=       5
 IPart=  6         3783 of         4052 points in       5 batches and       26 microbatches, Max-NSigAt=       5 Max-NSgAt2=       5
 IPart= 18         3752 of         3926 points in       3 batches and        9 microbatches, Max-NSigAt=       5 Max-NSgAt2=       5
 IPart= 11         4281 of         4748 points in       5 batches and       14 microbatches, Max-NSigAt=       5 Max-NSgAt2=       5
 IPart=  7         3387 of         3568 points in       4 batches and       29 microbatches, Max-NSigAt=       5 Max-NSgAt2=       5
 IPart= 25         4125 of         4214 points in       4 batches and       11 microbatches, Max-NSigAt=       5 Max-NSgAt2=       5
 IPart= 17         3822 of         3822 points in       3 batches and       12 microbatches, Max-NSigAt=       5 Max-NSgAt2=       5
 IPart= 14         3422 of         3568 points in       3 batches and       12 microbatches, Max-NSigAt=       5 Max-NSgAt2=       5
 IPart= 26         4087 of         4454 points in       5 batches and       30 microbatches, Max-NSigAt=       5 Max-NSgAt2=       5
 IPart=  2         3520 of         3524 points in       3 batches and       10 microbatches, Max-NSigAt=       5 Max-NSgAt2=       5
 IPart= 28         3797 of         4172 points in       5 batches and       49 microbatches, Max-NSigAt=       5 Max-NSgAt2=       5
 Forces at end of L703
 I=    0 X=   4.838511348089D-02 Y=   1.627700425591D-01 Z=   2.958665573296D-02
 I=    1 X=  -2.944261514127D-03 Y=  -9.892472795264D-03 Z=  -1.802307997216D-03
 I=    2 X=   1.261506492907D-03 Y=   4.219540192553D-03 Z=  -1.373734132556D-03
 I=    3 X=  -6.532015698917D-04 Y=   4.226338316237D-03 Z=   1.749174487910D-03
 I=    4 X=   2.851951781408D-03 Y=   3.181594657650D-03 Z=   1.741895648356D-03
 I=    5 X=  -5.159951902954D-04 Y=  -1.735000371176D-03 Z=  -3.150280064982D-04
 FrcOut:
 IF    =    36 IFX   =    51 IFXYZ =    66
 IFFX  =    81 IFFFX =   201 IFLen =    15
 IFFLen=   120 IFFFLn=     0 IEDerv=   201
 LEDerv=   773 IFroze=  1163 ICStrt= 39591
 FCEst1:  Generated internal coordinate force constants:
                1             2             3             4             5 
      1  0.654653D+00
      2 -0.121911D+00  0.280799D+00
      3 -0.221363D-01 -0.745426D-01  0.677362D+00
      4 -0.999885D-01  0.108301D-01 -0.259346D-02  0.691148D-01
      5  0.108302D-01 -0.667973D-01 -0.871223D-02 -0.584757D-02  0.511972D-01
      6  0.000000D+00  0.000000D+00 -0.361033D+00  0.000000D+00  0.000000D+00
      7 -0.307859D+00  0.493429D-02  0.106438D+00  0.177374D-01  0.571203D-03
      8 -0.282038D-02 -0.667924D-01  0.136072D-01  0.125328D-02  0.436033D-02
      9  0.103847D+00  0.963651D-02 -0.153162D+00  0.346406D-01  0.111554D-02
     10 -0.236867D+00  0.105986D+00 -0.817363D-01  0.129139D-01 -0.614995D-02
     11  0.113742D+00 -0.137757D+00  0.695500D-01 -0.683192D-02  0.918863D-02
     12 -0.817387D-01  0.648088D-01 -0.153197D+00 -0.284039D-01  0.198565D-01
     13 -0.993899D-02  0.160332D-03  0.279026D-04  0.222360D-03  0.596088D-03
     14  0.158939D-03 -0.945260D-02  0.975332D-04  0.596078D-03  0.205109D-02
     15  0.275662D-04  0.972533D-04 -0.996953D-02 -0.364322D-02 -0.122598D-01
                6             7             8             9            10 
      6  0.361033D+00
      7  0.000000D+00  0.300395D+00
      8  0.000000D+00 -0.266421D-02  0.511950D-01
      9  0.000000D+00 -0.118424D+00 -0.520312D-02  0.129755D+00
     10  0.000000D+00 -0.884168D-02  0.148722D-01 -0.172675D-01  0.228444D+00
     11  0.000000D+00 -0.311287D-02  0.918690D-02 -0.607934D-02 -0.112937D+00
     12  0.000000D+00  0.111386D-01 -0.145222D-01  0.217534D-01  0.963709D-01
     13  0.000000D+00 -0.143203D-02 -0.106409D-01 -0.279671D-02  0.435061D-02
     14  0.000000D+00  0.271592D-03  0.205014D-02  0.530412D-03 -0.177137D-02
     15  0.000000D+00  0.847081D-03  0.611804D-02  0.165432D-02  0.263284D-02
               11            12            13            14            15 
     11  0.123113D+00
     12 -0.690598D-01  0.129788D+00
     13  0.913969D-02  0.263308D-02  0.679805D-02
     14 -0.373182D-02 -0.108333D-02  0.744758D-03  0.908319D-02
     15  0.558914D-02  0.165543D-02  0.135731D-03  0.455389D-03  0.665978D-02
 Quadrupole    = 3.27384839D-01-7.18272264D-01 3.90887425D-01
                -3.40892679D-01-6.18667197D-02-2.08510304D-01
 -------------------------------------------------------------------
 Center     Atomic                   Forces (Hartrees/Bohr)
 Number     Number              X              Y              Z
 -------------------------------------------------------------------
      1        6           0.002944262    0.009892473    0.001802308
      2        1          -0.001261506   -0.004219540    0.001373734
      3        1           0.000653202   -0.004226338   -0.001749174
      4        1          -0.002851952   -0.003181595   -0.001741896
      5        1           0.000515995    0.001735000    0.000315028
 -------------------------------------------------------------------
 Cartesian Forces:  Max     0.009892473 RMS     0.003435844
 From PutF, contents of force:
   1    0.1373734133D-02
   2    0.1378630256D-02
   3    0.1373329160D-02
   4    0.2567827890D-02
   5    0.2556484342D-02
   6   -0.7664373619D-02
   7   -0.2364310348D-05
   8    0.1960529189D-05
   9   -0.1837313176D-02
 -----------------------------------------------------------------------------------------------
                       Internal Coordinate Forces (Hartree/Bohr or radian)
  Cent   Atom   N1       Length/X         N2         Alpha/Y        N3         Beta/Z          J
 -----------------------------------------------------------------------------------------------
      1  C 
      2  H        1   0.001374(     1)
      3  H        1   0.001379(     2)      2   0.002568(     5)
      4  H        1   0.001373(     3)      2   0.002556(     6)      3  -0.007664(     8)     0
      5  H        1  -0.001837(     4)      2   0.000002(     7)      3  -0.000002(     9)     0
 -----------------------------------------------------------------------------------------------
 Internal  Forces:  Max     0.007664374 RMS     0.002998546
 Force constants in Cartesian coordinates: 
                1             2             3             4             5 
      1  0.654653D+00
      2 -0.121911D+00  0.280799D+00
      3 -0.221363D-01 -0.745426D-01  0.677362D+00
      4 -0.999885D-01  0.108301D-01 -0.259346D-02  0.691148D-01
      5  0.108302D-01 -0.667973D-01 -0.871223D-02 -0.584757D-02  0.511972D-01
      6  0.000000D+00  0.000000D+00 -0.361033D+00  0.000000D+00  0.000000D+00
      7 -0.307859D+00  0.493429D-02  0.106438D+00  0.177374D-01  0.571203D-03
      8 -0.282038D-02 -0.667924D-01  0.136072D-01  0.125328D-02  0.436033D-02
      9  0.103847D+00  0.963651D-02 -0.153162D+00  0.346406D-01  0.111554D-02
     10 -0.236867D+00  0.105986D+00 -0.817363D-01  0.129139D-01 -0.614995D-02
     11  0.113742D+00 -0.137757D+00  0.695500D-01 -0.683192D-02  0.918863D-02
     12 -0.817387D-01  0.648088D-01 -0.153197D+00 -0.284039D-01  0.198565D-01
     13 -0.993899D-02  0.160332D-03  0.279026D-04  0.222360D-03  0.596088D-03
     14  0.158939D-03 -0.945260D-02  0.975332D-04  0.596078D-03  0.205109D-02
     15  0.275662D-04  0.972533D-04 -0.996953D-02 -0.364322D-02 -0.122598D-01
                6             7             8             9            10 
      6  0.361033D+00
      7  0.000000D+00  0.300395D+00
      8  0.000000D+00 -0.266421D-02  0.511950D-01
      9  0.000000D+00 -0.118424D+00 -0.520312D-02  0.129755D+00
     10  0.000000D+00 -0.884168D-02  0.148722D-01 -0.172675D-01  0.228444D+00
     11  0.000000D+00 -0.311287D-02  0.918690D-02 -0.607934D-02 -0.112937D+00
     12  0.000000D+00  0.111386D-01 -0.145222D-01  0.217534D-01  0.963709D-01
     13  0.000000D+00 -0.143203D-02 -0.106409D-01 -0.279671D-02  0.435061D-02
     14  0.000000D+00  0.271592D-03  0.205014D-02  0.530412D-03 -0.177137D-02
     15  0.000000D+00  0.847081D-03  0.611804D-02  0.165432D-02  0.263284D-02
               11            12            13            14            15 
     11  0.123113D+00
     12 -0.690598D-01  0.129788D+00
     13  0.913969D-02  0.263308D-02  0.679805D-02
     14 -0.373182D-02 -0.108333D-02  0.744758D-03  0.908319D-02
     15  0.558914D-02  0.165543D-02  0.135731D-03  0.455389D-03  0.665978D-02
 FCInt: Cartesian first derivatives: 
                 1             2             3             4             5 
      1   0.000000D+00  0.000000D+00  0.000000D+00  0.000000D+00  0.000000D+00
      2   0.000000D+00  0.000000D+00  0.000000D+00  0.000000D+00  0.000000D+00
      3   0.000000D+00  0.000000D+00  0.000000D+00  0.000000D+00  0.000000D+00
 FCInt: Cartesian force constants: 
                1             2             3             4             5 
      1  0.654653D+00
      2 -0.121911D+00  0.280799D+00
      3 -0.221363D-01 -0.745426D-01  0.677362D+00
      4 -0.999885D-01  0.108301D-01 -0.259346D-02  0.691148D-01
      5  0.108302D-01 -0.667973D-01 -0.871223D-02 -0.584757D-02  0.511972D-01
      6  0.000000D+00  0.000000D+00 -0.361033D+00  0.000000D+00  0.000000D+00
      7 -0.307859D+00  0.493429D-02  0.106438D+00  0.177374D-01  0.571203D-03
      8 -0.282038D-02 -0.667924D-01  0.136072D-01  0.125328D-02  0.436033D-02
      9  0.103847D+00  0.963651D-02 -0.153162D+00  0.346406D-01  0.111554D-02
     10 -0.236867D+00  0.105986D+00 -0.817363D-01  0.129139D-01 -0.614995D-02
     11  0.113742D+00 -0.137757D+00  0.695500D-01 -0.683192D-02  0.918863D-02
     12 -0.817387D-01  0.648088D-01 -0.153197D+00 -0.284039D-01  0.198565D-01
     13 -0.993899D-02  0.160332D-03  0.279026D-04  0.222360D-03  0.596088D-03
     14  0.158939D-03 -0.945260D-02  0.975332D-04  0.596078D-03  0.205109D-02
     15  0.275662D-04  0.972533D-04 -0.996953D-02 -0.364322D-02 -0.122598D-01
                6             7             8             9            10 
      6  0.361033D+00
      7  0.000000D+00  0.300395D+00
      8  0.000000D+00 -0.266421D-02  0.511950D-01
      9  0.000000D+00 -0.118424D+00 -0.520312D-02  0.129755D+00
     10  0.000000D+00 -0.884168D-02  0.148722D-01 -0.172675D-01  0.228444D+00
     11  0.000000D+00 -0.311287D-02  0.918690D-02 -0.607934D-02 -0.112937D+00
     12  0.000000D+00  0.111386D-01 -0.145222D-01  0.217534D-01  0.963709D-01
     13  0.000000D+00 -0.143203D-02 -0.106409D-01 -0.279671D-02  0.435061D-02
     14  0.000000D+00  0.271592D-03  0.205014D-02  0.530412D-03 -0.177137D-02
     15  0.000000D+00  0.847081D-03  0.611804D-02  0.165432D-02  0.263284D-02
               11            12            13            14            15 
     11  0.123113D+00
     12 -0.690598D-01  0.129788D+00
     13  0.913969D-02  0.263308D-02  0.679805D-02
     14 -0.373182D-02 -0.108333D-02  0.744758D-03  0.908319D-02
     15  0.558914D-02  0.165543D-02  0.135731D-03  0.455389D-03  0.665978D-02
 Internal force constants: 
                1             2             3             4             5 
      1  0.361033D+00
      2  0.000000D+00  0.361033D+00
      3  0.000000D+00  0.000000D+00  0.361033D+00
      4  0.000000D+00  0.000000D+00  0.000000D+00  0.938728D-02
      5  0.000000D+00  0.000000D+00  0.000000D+00  0.000000D+00  0.287412D+00
      6  0.000000D+00  0.000000D+00  0.000000D+00  0.000000D+00  0.114183D+00
      7  0.000000D+00  0.000000D+00  0.000000D+00  0.000000D+00  0.232640D-01
      8  0.000000D+00  0.000000D+00  0.000000D+00  0.000000D+00  0.603955D-01
      9  0.000000D+00  0.000000D+00  0.000000D+00  0.000000D+00 -0.386511D-01
                6             7             8             9 
      6  0.287418D+00
      7  0.232812D-01  0.240505D+00
      8  0.216223D-01 -0.681780D-01  0.168638D+00
      9  0.386626D-01  0.142182D-04 -0.116585D+00  0.233412D+00
 Frcnst in PutFF: 
                1             2             3             4             5 
      1  0.361033D+00
      2  0.000000D+00  0.361033D+00
      3  0.000000D+00  0.000000D+00  0.361033D+00
      4  0.000000D+00  0.000000D+00  0.000000D+00  0.287412D+00
      5  0.000000D+00  0.000000D+00  0.000000D+00  0.114183D+00  0.287418D+00
      6  0.000000D+00  0.000000D+00  0.000000D+00  0.603955D-01  0.216223D-01
      7  0.000000D+00  0.000000D+00  0.000000D+00 -0.386511D-01  0.386626D-01
      8  0.000000D+00  0.000000D+00  0.000000D+00  0.232640D-01  0.232812D-01
      9  0.000000D+00  0.000000D+00  0.000000D+00  0.000000D+00  0.000000D+00
                6             7             8             9 
      6  0.168638D+00
      7 -0.116585D+00  0.233412D+00
      8 -0.681780D-01  0.142182D-04  0.240505D+00
      9  0.000000D+00  0.000000D+00  0.000000D+00  0.938728D-02
 Force constants in internal coordinates: 
                1             2             3             4             5 
      1  0.361033D+00
      2  0.000000D+00  0.361033D+00
      3  0.000000D+00  0.000000D+00  0.361033D+00
      4  0.000000D+00  0.000000D+00  0.000000D+00  0.938728D-02
      5  0.000000D+00  0.000000D+00  0.000000D+00  0.000000D+00  0.287412D+00
      6  0.000000D+00  0.000000D+00  0.000000D+00  0.000000D+00  0.114183D+00
      7  0.000000D+00  0.000000D+00  0.000000D+00  0.000000D+00  0.232640D-01
      8  0.000000D+00  0.000000D+00  0.000000D+00  0.000000D+00  0.603955D-01
      9  0.000000D+00  0.000000D+00  0.000000D+00  0.000000D+00 -0.386511D-01
                6             7             8             9 
      6  0.287418D+00
      7  0.232812D-01  0.240505D+00
      8  0.216223D-01 -0.681780D-01  0.168638D+00
      9  0.386626D-01  0.142182D-04 -0.116585D+00  0.233412D+00
 Final forces over variables, Energy=-4.03405159D+01:
  1.37373413D-03 1.37863026D-03 1.37332916D-03 2.56782789D-03
  2.55648434D-03-7.66437362D-03-2.36431035D-06 1.96052919D-06
 -1.83731318D-03

 GradGradGradGradGradGradGradGradGradGradGradGradGradGradGradGradGradGrad
 Berny optimization.
 Search for a local minimum.
 Step number   1 out of a maximum of   50
 All quantities printed in internal units (Hartrees-Bohrs-Radians)
 Second derivative matrix not updated -- first step.
 The second derivative matrix:
                          R1        R2        R3        A2        A3
           R1           0.36103
           R2           0.00000   0.36103
           R3           0.00000   0.00000   0.36103
           A2           0.00000   0.00000   0.00000   0.28741
           A3           0.00000  -0.00000  -0.00000   0.11418   0.28742
           D3           0.00000  -0.00000   0.00000   0.06040   0.02162
           DH1          0.00000   0.00000  -0.00000  -0.03865   0.03866
           ANG1         0.00000  -0.00000  -0.00000   0.02326   0.02328
           BB           0.00000  -0.00000   0.00000  -0.00000   0.00000
                          D3        DH1      ANG1       BB
           D3           0.16864
           DH1         -0.11659   0.23341
           ANG1        -0.06818   0.00001   0.24051
           BB          -0.00000  -0.00000  -0.00000   0.00939
 ITU=  0
     Eigenvalues ---    0.05338   0.14844   0.24330   0.34986   0.36103
     Eigenvalues ---    0.36103   0.36103   0.422411000.00000
 RFO step:  Lambda=-8.95674652D-04 EMin= 5.33814107D-02
 Linear search not attempted -- first point.
 Variable       Old X    -DE/DX   Delta X   Delta X   Delta X     New X
                                 (Linear)    (Quad)   (Total)
    R1        2.03920   0.00137   0.00000   0.00380   0.00380   2.04300
    R2        2.03920   0.00138   0.00000   0.00381   0.00381   2.04301
    R3        2.03920   0.00137   0.00000   0.00379   0.00379   2.04300
    A2        2.04403   0.00257   0.00000   0.01880   0.01880   2.06283
    A3        2.04417   0.00256   0.00000   0.01854   0.01854   2.06271
    D3        3.71950  -0.00766   0.00000  -0.10233  -0.10233   3.61718
   DH1        1.85965  -0.00000   0.00000  -0.05088  -0.05088   1.80877
   ANG1       1.74329   0.00000   0.00000  -0.03249  -0.03249   1.71080
    BB        6.04712  -0.00184   0.00000   0.00000   0.00000   6.04712
         Item               Value     Threshold  Converged?
 Maximum Force            0.007664     0.000450     NO 
 RMS     Force            0.003113     0.000300     NO 
 Maximum Displacement     0.102326     0.001800     NO 
 RMS     Displacement     0.040628     0.001200     NO 
 Predicted change in Energy=-4.544887D-04
 GradGradGradGradGradGradGradGradGradGradGradGradGradGradGradGradGradGrad

 ---------------------------------------------------------------------------------------------------
                            Z-MATRIX (ANGSTROMS AND DEGREES)
   CD    Cent   Atom    N1       Length/X        N2       Alpha/Y        N3        Beta/Z          J
 ---------------------------------------------------------------------------------------------------
      1      1  C 
      2      2  H        1   1.081109(     1)
      3      3  H        1   1.081116(     2)      2  118.191(     5)
      4      4  H        1   1.081108(     3)      2  118.185(     6)      3  207.249(     8)      0
      5      5  H        1   3.200000(     4)      2   98.021(     7)      3  103.635(     9)      0
 ---------------------------------------------------------------------------------------------------
                         Z-Matrix orientation:                         
 ---------------------------------------------------------------------
 Center     Atomic      Atomic             Coordinates (Angstroms)
 Number     Number       Type             X           Y           Z
 ---------------------------------------------------------------------
      1          6           0        0.000000    0.000000    0.000000
      2          1           0        0.000000    0.000000    1.081109
      3          1           0        0.952868    0.000000   -0.510739
      4          1           0       -0.847171    0.436304   -0.510621
      5          1           0       -0.746964   -3.079391   -0.446541
 ---------------------------------------------------------------------
                    Distance matrix (angstroms):
                    1          2          3          4          5
     1  C    0.000000
     2  H    1.081109   0.000000
     3  H    1.081116   1.855245   0.000000
     4  H    1.081108   1.855172   1.852162   0.000000
     5  H    3.200000   3.517714   3.517982   3.517707   0.000000
 Symmetry turned off by external request.
 Stoichiometry    CH4
 Framework group  C1[X(CH4)]
 Deg. of freedom     9
 Full point group                 C1      NOp   1
 Rotational constants (GHZ):    145.8550829     43.4191034     43.3907913
 Standard basis: Aug-CC-pVTZ (5D, 7F)
   138 basis functions,   180 primitive gaussians,   155 cartesian basis functions
     5 alpha electrons        5 beta electrons
       nuclear repulsion energy        11.1102366135 Hartrees.
 NAtoms=    5 NActive=    5 NUniq=    5 SFac= 1.00D+00 NAtFMM=   60 NAOKFM=F Big=F
 Integral buffers will be    131072 words long.
 Raffenetti 2 integral format.
 Two-electron integral symmetry is turned off.
 Nuclear repulsion after empirical dispersion term =       11.1097637184 Hartrees.
 One-electron integrals computed using PRISM.
 NBasis=   138 RedAO= T EigKep=  1.09D-04  NBF=   138
 NBsUse=   138 1.00D-06 EigRej= -1.00D+00 NBFU=   138
 ExpMin= 2.53D-02 ExpMax= 8.24D+03 ExpMxC= 2.81D+02 IAcc=3 IRadAn=         5 AccDes= 0.00D+00
 Harris functional with IExCor= 4639 and IRadAn=       5 diagonalized for initial guess.
 HarFok:  IExCor= 4639 AccDes= 0.00D+00 IRadAn=         5 IDoV= 1 UseB2=F ITyADJ=14
 ICtDFT=  3500011 ScaDFX=  1.000000  1.000000  1.000000  1.000000
 FoFCou: FMM=F IPFlag=           0 FMFlag=      100000 FMFlg1=           0
         NFxFlg=           0 DoJE=T BraDBF=F KetDBF=T FulRan=T
         wScrn=  0.000000 ICntrl=     500 IOpCl=  0 I1Cent=   200000004 NGrid=           0
         NMat0=    1 NMatS0=      1 NMatT0=    0 NMatD0=    1 NMtDS0=    0 NMtDT0=    0
 Symmetry not used in FoFCou.
 Mixing orbitals, IMix= 1 IMixAn=  0 NRI=1 NE=    5 Coef=  7.07106781D-01  7.07106781D-01
 Mixing orbitals, IMix= 1 IMixAn=  0 NRI=1 NE=    5 Coef= -7.07106781D-01  7.07106781D-01
 Initial guess <Sx>= 0.0000 <Sy>= 0.0000 <Sz>= 0.0000 <S**2>= 1.0000 S= 0.6180
 Keep R1 and R2 ints in memory in canonical form, NReq=186088918.
 Requested convergence on RMS density matrix=1.00D-08 within 128 cycles.
 Requested convergence on MAX density matrix=1.00D-06.
 Requested convergence on             energy=1.00D-06.
 No special actions if energy rises.
 SCF Done:  E(UwB97XD) =  -40.3412587092     A.U. after   16 cycles
            NFock= 16  Conv=0.76D-08     -V/T= 2.0073
 <Sx>= 0.0000 <Sy>= 0.0000 <Sz>= 0.0000 <S**2>= 0.9765 S= 0.6075
 <L.S>=  0.00000000000    
 Annihilation of the first spin contaminant:
 S**2 before annihilation     0.9765,   after     0.0276
 DipInt: DoE/N= T T RetVal/Mat= T F Init=T NMatP=  1 IDeriv=0 Min/MaxMlt=  1  1
 Entering OneElI...
 Multipole integrals L=1 to 1 MinM= 0 MaxM= 0.
 Requested accuracy = 0.1000D-12
 PrsmSu:  NPrtUS=   1 ThrOK=F IAlg=1 NPAlg=1 LenDen=           0.
 Prism:   IPart=     0 DynPar=F LinDyn=F Incr=          12.
 PRISM was handed   419324200 working-precision words and  1275 shell-pairs
 IPart=  0 NShTot=        1275 NBatch=          40 AvBLen=        31.9
 PrSmSu:  NxtVal=             13.
 Entering OneElI...
 Calculate overlap and kinetic energy integrals
    NBasis = 155  MinDer = 1  MaxDer = 1
 Requested accuracy = 0.1000D-12
 PrsmSu:  NPrtUS=  32 ThrOK=T IAlg=1 NPAlg=1 LenDen=           0.
 Prism:   IPart=     0 DynPar=F LinDyn=F Incr=           1.
 PRISM was handed    13082659 working-precision words and  1275 shell-pairs
 PRISM was handed    13082659 working-precision words and  1275 shell-pairs
 PRISM was handed    13082659 working-precision words and  1275 shell-pairs
 PRISM was handed    13082659 working-precision words and  1275 shell-pairs
 PRISM was handed    13082659 working-precision words and  1275 shell-pairs
 PRISM was handed    13082659 working-precision words and  1275 shell-pairs
 PRISM was handed    13082659 working-precision words and  1275 shell-pairs
 PRISM was handed    13082659 working-precision words and  1275 shell-pairs
 PRISM was handed    13082659 working-precision words and  1275 shell-pairs
 PRISM was handed    13082659 working-precision words and  1275 shell-pairs
 PRISM was handed    13082659 working-precision words and  1275 shell-pairs
 PRISM was handed    13082659 working-precision words and  1275 shell-pairs
[...]
     2  H    0.015520  -0.030524   0.002172   0.002162   0.002141
     3  H    0.015471   0.002172  -0.030585   0.002161   0.002122
     4  H    0.015522   0.002162   0.002161  -0.030581   0.002075
     5  H   -0.008290   0.002141   0.002122   0.002075  -0.989072
 Mulliken charges and spin densities:
               1          2
     1  C   -1.077502   1.016872
     2  H    0.358211  -0.008528
     3  H    0.358090  -0.008660
     4  H    0.358009  -0.008660
     5  H    0.003193  -0.991023
 Sum of Mulliken charges =  -0.00000  -0.00000
 Mulliken charges and spin densities with hydrogens summed into heavy atoms:
               1          2
     1  C   -0.000000  -0.000000
 APT charges:
               1
     1  C   -0.160030
     2  H    0.047982
     3  H    0.047065
     4  H    0.048004
     5  H    0.016978
 Sum of APT charges =   0.00000
 APT charges with hydrogens summed into heavy atoms:
               1
     1  C    0.000000
 Electronic spatial extent (au):  <R**2>=             69.7744
 Charge=             -0.0000 electrons
 Dipole moment (field-independent basis, Debye):
    X=              0.0020    Y=              0.1120    Z=              0.0010  Tot=              0.1121
 Quadrupole moment (field-independent basis, Debye-Ang):
   XX=             -8.6229   YY=            -10.6667   ZZ=             -8.6208
   XY=             -0.0405   XZ=             -0.0005   YZ=             -0.0233
 Traceless Quadrupole moment (field-independent basis, Debye-Ang):
   XX=              0.6806   YY=             -1.3632   ZZ=              0.6826
   XY=             -0.0405   XZ=             -0.0005   YZ=             -0.0233
 Octapole moment (field-independent basis, Debye-Ang**2):
  XXX=              0.2305  YYY=             14.2574  ZZZ=              1.0475  XYY=              0.0820
  XXY=              4.6376  XXZ=             -0.8886  XZZ=              0.0764  YZZ=              4.6160
  YYZ=              0.0423  XYZ=              0.0187
 Hexadecapole moment (field-independent basis, Debye-Ang**3):
 XXXX=            -16.9478 YYYY=           -103.8077 ZZZZ=            -16.9289 XXXY=             -0.7279
 XXXZ=             -0.0072 YYYX=             -0.6982 YYYZ=             -0.3549 ZZZX=             -0.0059
 ZZZY=             -0.3577 XXYY=            -20.3196 XXZZ=             -5.6462 YYZZ=            -20.3182
 XXYZ=             -0.1409 YYXZ=             -0.0010 ZZXY=             -0.2427
 N-N= 1.114399292777D+01 E-N=-1.151581958393D+02  KE= 4.005454877007D+01
  Exact polarizability:  20.790   0.109  27.301  -0.001   0.060  20.783
 Approx polarizability:  18.000   0.014  19.079   0.000   0.006  18.002
                          Isotropic Fermi Contact Couplings
        Atom                 a.u.       MegaHertz       Gauss      10(-4) cm-1
     1  C(13)              0.01502       8.44148       3.01213       2.81577
     2  H(1)              -0.01392     -31.11142     -11.10133     -10.37765
     3  H(1)              -0.01392     -31.11361     -11.10211     -10.37838
     4  H(1)              -0.01392     -31.10233     -11.09808     -10.37462
     5  H(1)              -0.28951    -647.03476    -230.87808    -215.82756
 --------------------------------------------------------
       Center         ----  Spin Dipole Couplings  ----
                      3XX-RR        3YY-RR        3ZZ-RR
 --------------------------------------------------------
     1   Atom       -0.555675      1.111861     -0.556185
     2   Atom       -0.073027     -0.003818      0.076845
     3   Atom        0.039318     -0.003798     -0.035520
     4   Atom        0.039382     -0.003843     -0.035539
     5   Atom       -0.005874      0.011753     -0.005878
 --------------------------------------------------------
                        XY            XZ            YZ
 --------------------------------------------------------
     1   Atom        0.033540      0.000393      0.019374
     2   Atom        0.001424     -0.000055     -0.003382
     3   Atom       -0.002220     -0.064921      0.002936
     4   Atom        0.000530      0.064981      0.000309
     5   Atom        0.000283      0.000002      0.000142
 --------------------------------------------------------


 ---------------------------------------------------------------------------------
              Anisotropic Spin Dipole Couplings in Principal Axis System
 ---------------------------------------------------------------------------------

       Atom             a.u.   MegaHertz   Gauss  10(-4) cm-1        Axes

              Baa    -0.5564   -74.665   -26.642   -24.906 -0.0530 -0.0105  0.9985
     1 C(13)  Bbb    -0.5563   -74.657   -26.639   -24.903  0.9984 -0.0207  0.0528
              Bcc     1.1128   149.322    53.282    49.808  0.0201  0.9997  0.0116
 
              Baa    -0.0731   -38.979   -13.909   -13.002  0.9998 -0.0206 -0.0001
     2 H(1)   Bbb    -0.0039    -2.097    -0.748    -0.699  0.0206  0.9989  0.0418
              Bcc     0.0770    41.076    14.657    13.702 -0.0008 -0.0418  0.9991
 
              Baa    -0.0731   -38.983   -13.910   -13.003  0.4998 -0.0207  0.8659
     3 H(1)   Bbb    -0.0039    -2.087    -0.745    -0.696  0.0467  0.9989 -0.0031
              Bcc     0.0770    41.070    14.655    13.699  0.8649 -0.0420 -0.5002
 
              Baa    -0.0731   -38.994   -13.914   -13.007 -0.5003 -0.0000  0.8659
     4 H(1)   Bbb    -0.0038    -2.053    -0.733    -0.685 -0.0066  1.0000 -0.0038
              Bcc     0.0769    41.047    14.647    13.692  0.8658  0.0076  0.5003
 
              Baa    -0.0059    -3.137    -1.119    -1.046 -0.4241 -0.0005  0.9056
     5 H(1)   Bbb    -0.0059    -3.137    -1.119    -1.046  0.9055 -0.0179  0.4240
              Bcc     0.0118     6.274     2.239     2.093  0.0160  0.9998  0.0081
 

 ---------------------------------------------------------------------------------

 Calling FoFJK, ICntrl=    100127 FMM=F ISym2X=0 I1Cent= 0 IOpClX= 1 NMat=1 NMatS=1 NMatT=0.
 Full mass-weighted force constant matrix:
 Low frequencies --- -307.7020   -8.9264   -0.0007    0.0009    0.0010   78.3779
 Low frequencies ---   85.5576  151.9889  169.1560
 ******    1 imaginary frequencies (negative Signs) ****** 
 Diagonal vibrational polarizability:
        0.0654876       9.6745541       0.0619616
 Harmonic frequencies (cm**-1), IR intensities (KM/Mole), Raman scattering
 activities (A**4/AMU), depolarization ratios for plane and unpolarized
 incident light, reduced masses (AMU), force constants (mDyne/A),
 and normal coordinates:
                      1                      2                      3
                      A                      A                      A
 Frequencies --   -307.6967               150.8680               169.1538
 Red. masses --      1.0749                 1.0160                 1.0161
 Frc consts  --      0.0600                 0.0136                 0.0171
 IR Inten    --   7.416                 0.1352E-01             0.1860E-01
  Atom  AN      X      Y      Z        X      Y      Z        X      Y      Z
     1   6    -0.00  -0.08  -0.00     0.03  -0.00  -0.00     0.00   0.00   0.03
     2   1     0.00  -0.02  -0.00     0.02  -0.02  -0.00     0.01   0.75   0.03
     3   1    -0.00  -0.02   0.00     0.03   0.66   0.01    -0.01  -0.36   0.01
     4   1     0.00  -0.03   0.00     0.01  -0.64  -0.01    -0.01  -0.40   0.01
     5   1     0.01   1.00   0.01    -0.38  -0.00   0.01    -0.01  -0.00  -0.38
                      4                      5                      6
                      A                      A                      A
 Frequencies --    540.0787              1409.6860              1410.0414
 Red. masses --      1.2112                 1.1018                 1.1017
 Frc consts  --      0.2081                 1.2900                 1.2906
 IR Inten    --   81.98                  2.952                  2.942    
  Atom  AN      X      Y      Z        X      Y      Z        X      Y      Z
     1   6     0.00   0.14   0.00    -0.09   0.00  -0.01    -0.01  -0.00   0.09
     2   1    -0.01  -0.58   0.00     0.80  -0.01  -0.01     0.11  -0.01   0.07
     3   1    -0.01  -0.56  -0.01     0.20  -0.00   0.46    -0.36   0.02  -0.53
     4   1    -0.02  -0.57  -0.01     0.09  -0.01  -0.30     0.40   0.00  -0.63
     5   1     0.00   0.09   0.00    -0.00  -0.00  -0.00     0.00   0.00   0.00
                      7                      8                      9
                      A                      A                      A
 Frequencies --   3122.7086              3304.0641              3304.2175
 Red. masses --      1.0078                 1.1186                 1.1185
 Frc consts  --      5.7904                 7.1948                 7.1952
 IR Inten    --  0.1535E-01              3.570                  3.547    
  Atom  AN      X      Y      Z        X      Y      Z        X      Y      Z
     1   6    -0.00  -0.00  -0.00    -0.03  -0.00   0.10     0.10  -0.00   0.03
     2   1    -0.00  -0.00   0.58    -0.00   0.00  -0.78     0.01  -0.00  -0.23
     3   1     0.50  -0.00  -0.29     0.52  -0.00  -0.29    -0.48  -0.00   0.29
     4   1    -0.50   0.02  -0.29    -0.17   0.01  -0.08    -0.68   0.03  -0.40
     5   1    -0.00   0.00   0.00     0.00  -0.00  -0.00    -0.00   0.00  -0.00

 -------------------
 - Thermochemistry -
 -------------------
 Temperature   298.150 Kelvin.  Pressure   1.00000 Atm.
 Atom     1 has atomic number  6 and mass  12.00000
 Atom     2 has atomic number  1 and mass   1.00783
 Atom     3 has atomic number  1 and mass   1.00783
 Atom     4 has atomic number  1 and mass   1.00783
 Atom     5 has atomic number  1 and mass   1.00783
 Molecular mass:    16.03130 amu.
 Principal axes and moments of inertia in atomic units:
                           1         2         3
     Eigenvalues --    12.55164  40.86712  40.87010
           X            0.01577  -0.04033   0.99906
           Y            0.99985  -0.00717  -0.01607
           Z            0.00781   0.99916   0.04022
 This molecule is an asymmetric top.
 Rotational symmetry number  1.
 Rotational temperatures (Kelvin)      6.90060     2.11940     2.11925
 Rotational constants (GHZ):         143.78525    44.16121    44.15799
    1 imaginary frequencies ignored.
 Zero-point vibrational energy      80214.5 (Joules/Mol)
                                   19.17173 (Kcal/Mol)
 Warning -- explicit consideration of   3 degrees of freedom as
           vibrations may cause significant error
 Vibrational temperatures:    217.07   243.37   777.05  2028.22  2028.73
          (Kelvin)           4492.88  4753.81  4754.03
 
 Zero-point correction=                           0.030552 (Hartree/Particle)
 Thermal correction to Energy=                    0.034848
 Thermal correction to Enthalpy=                  0.035792
 Thermal correction to Gibbs Free Energy=         0.008397
 Sum of electronic and zero-point Energies=            -40.311804
 Sum of electronic and thermal Energies=               -40.307509
 Sum of electronic and thermal Enthalpies=             -40.306564
 Sum of electronic and thermal Free Energies=          -40.333959
 
                     E (Thermal)             CV                S
                      KCal/Mol        Cal/Mol-Kelvin    Cal/Mol-Kelvin
 Total                   21.867             11.110             57.657
 Electronic               0.000              0.000              0.000
 Translational            0.889              2.981             34.261
 Rotational               0.889              2.981             17.690
 Vibrational             20.090              5.148              5.706
 Vibration     1          0.618              1.902              2.661
 Vibration     2          0.625              1.880              2.445
 Vibration     3          0.895              1.161              0.565
                       Q            Log10(Q)             Ln(Q)
 Total Bot       0.137282D-03         -3.862387         -8.893474
 Total V=0       0.155085D+11         10.190570         23.464654
 Vib (Bot)       0.331985D-13        -13.478882        -31.036272
 Vib (Bot)    1  0.134368D+01          0.128295          0.295411
 Vib (Bot)    2  0.119171D+01          0.076169          0.175386
 Vib (Bot)    3  0.293333D+00         -0.532638         -1.226445
 Vib (V=0)       0.375038D+01          0.574075          1.321856
 Vib (V=0)    1  0.193369D+01          0.286387          0.659431
 Vib (V=0)    2  0.179235D+01          0.253422          0.583526
 Vib (V=0)    3  0.107969D+01          0.033300          0.076677
 Electronic      0.100000D+01          0.000000          0.000000
 Translational   0.252295D+07          6.401908         14.740939
 Rotational      0.163903D+04          3.214587          7.401859
 -------------------------------------------------------------------
 Center     Atomic                   Forces (Hartrees/Bohr)
 Number     Number              X              Y              Z
 -------------------------------------------------------------------
      1        6          -0.000021766   -0.001619947   -0.000034402
      2        1           0.000001258   -0.000000164   -0.000000536
      3        1           0.000018787   -0.000004903    0.000011730
      4        1          -0.000022223   -0.000009908    0.000012017
      5        1           0.000023944    0.001634922    0.000011190
 -------------------------------------------------------------------
 Cartesian Forces:  Max     0.001634922 RMS     0.000594464
 -----------------------------------------------------------------------------------------------
                       Internal Coordinate Forces (Hartree/Bohr or radian)
  Cent   Atom   N1       Length/X         N2         Alpha/Y        N3         Beta/Z          J
 -----------------------------------------------------------------------------------------------
      1  C 
      2  H        1  -0.000001(     1)
      3  H        1   0.000010(     2)      2  -0.000040(     5)
      4  H        1   0.000013(     3)      2  -0.000043(     6)      3  -0.000019(     8)     0
      5  H        1  -0.001635(     4)      2   0.000016(     7)      3   0.000019(     9)     0
 -----------------------------------------------------------------------------------------------
 Internal  Forces:  Max     0.001635130 RMS     0.000545525

 GradGradGradGradGradGradGradGradGradGradGradGradGradGradGradGradGradGrad
 Berny optimization.
 Search for a local minimum.
 Step number   1 out of a maximum of    2
 All quantities printed in internal units (Hartrees-Bohrs-Radians)
 Second derivative matrix not updated -- analytic derivatives used.
 The second derivative matrix:
                          R1        R2        R3        A2        A3
           R1           0.37179
           R2           0.00002   0.37187
           R3           0.00002   0.00003   0.37191
           A2           0.01579   0.00008  -0.01583   0.18896
           A3           0.01579  -0.01582   0.00008   0.09445   0.18902
           D3           0.00007  -0.00054  -0.00062   0.00333   0.00320
           DH1          0.00000  -0.00015   0.00014  -0.00022   0.00022
           ANG1        -0.00016   0.00008   0.00009  -0.00027  -0.00027
           BB          -0.00002  -0.00001  -0.00002  -0.00002  -0.00002
                          D3        DH1      ANG1       BB
           D3           0.01102
           DH1         -0.00204   0.00410
           ANG1        -0.00119   0.00003   0.00404
           BB           0.00062  -0.00002   0.00002  -0.00329
 ITU=  0
     Eigenvalues ---    0.00337   0.00403   0.01168   0.09363   0.27574
     Eigenvalues ---    0.37190   0.37277   0.379581000.00000
 Angle between quadratic step and forces=  65.72 degrees.
 Linear search not attempted -- first point.
 Variable       Old X    -DE/DX   Delta X   Delta X   Delta X     New X
                                 (Linear)    (Quad)   (Total)
    R1        2.03765  -0.00000   0.00000   0.00001   0.00001   2.03766
    R2        2.03765   0.00001   0.00000   0.00002   0.00002   2.03767
    R3        2.03764   0.00001   0.00000   0.00003   0.00003   2.03767
    A2        2.09437  -0.00004   0.00000  -0.00011  -0.00011   2.09426
    A3        2.09436  -0.00004   0.00000  -0.00017  -0.00017   2.09419
    D3        3.18172  -0.00002   0.00000  -0.00042  -0.00042   3.18130
   DH1        1.58734   0.00002   0.00000   0.00435   0.00435   1.59169
   ANG1       1.57930   0.00002   0.00000   0.00388   0.00388   1.58318
    BB        6.04712  -0.00164   0.00000   0.00000   0.00000   6.04712
         Item               Value     Threshold  Converged?
 Maximum Force            0.000043     0.000450     YES
 RMS     Force            0.000024     0.000300     YES
 Maximum Displacement     0.004348     0.001800     NO 
 RMS     Displacement     0.001949     0.001200     NO 
 Predicted change in Energy=-8.269226D-08
 GradGradGradGradGradGradGradGradGradGradGradGradGradGradGradGradGradGrad


 Test job not archived.
 1\1\GINC-NODE-6-7\Freq\UwB97XD\Aug-CC-pVTZ\C1H4\CAVALLOTTI\03-Jun-2023
 \1\\#N Geom=AllCheck Guess=TCheck SCRF=Check Test GenChk UwB97XD/Aug-C
 C-pVTZ Freq\\geom 0\\0,1\C\H,1,R1\H,1,R2,2,A2\H,1,R3,2,A3,3,D3,0\H,1,B
 B,2,ANG1,3,DH1,0\\R1=1.07827602\R2=1.07827921\R3=1.07827529\A2=119.998
 69078\A3=119.9980586\D3=182.2992586\DH1=90.94787081\ANG1=90.48704428\B
 B=3.2\\Version=EM64L-G09RevD.01\HF=-40.3423562\S2=0.978227\S2-1=0.\S2A
 =0.029517\RMSD=1.423e-09\RMSF=5.945e-04\ZeroPoint=0.0305521\Thermal=0.
 0348475\Dipole=0.0007867,0.0440772,0.0003995\DipoleDeriv=0.0140822,-0.
 0111725,-0.0002331,-0.0100992,-0.5087587,-0.0058834,-0.0001288,-0.0057
 718,0.0145879,0.0444188,0.0021733,-0.0000718,0.0021396,0.1501516,-0.00
 26716,0.0000293,0.0026618,-0.0506238,-0.026939,0.0038643,0.0408444,-0.
 0011983,0.1477073,0.0029614,0.0405347,0.0000784,0.0204278,-0.026665,0.
 0041483,-0.0405635,0.0081028,0.1501265,0.0050213,-0.0404563,0.0025271,
 0.0205504,-0.004897,0.0009865,0.0000241,0.0010551,0.0607734,0.0005723,
 0.0000212,0.0005046,-0.0049422\Polar=20.7897268,0.1086443,27.3013421,-
 0.0006023,0.0598859,20.7832088\PG=C01 [X(C1H4)]\NImag=1\\0.61990682,-0
 .01197002,0.02178393,-0.00013462,-0.00699375,0.62022966,-0.05485992,0.
 00091311,-0.00001116,0.04549592,0.00093426,-0.00870803,-0.00047237,-0.
 00083953,0.00375281,0.00000743,0.00045238,-0.35837268,-0.00000551,-0.0
 0037724,0.37178649,-0.28251628,0.00086718,0.13149761,0.00470100,0.0000
 6638,-0.00385921,0.29025934,-0.00000259,-0.00851197,0.00105435,0.00009
 757,0.00268152,0.00002470,-0.00071340,0.00347192,0.13151705,0.00059521
 ,-0.13072989,0.02357783,0.00007846,-0.00671991,-0.14133359,-0.00056180
 ,0.12711737,-0.28214533,0.01009756,-0.13135196,0.00469014,-0.00015362,
 0.00385740,-0.01245614,0.00082484,-0.01373383,0.28989248,0.01094651,-0
 .00903529,0.00636933,-0.00016160,0.00270124,-0.00011519,-0.00022637,0.
 00276200,-0.00009776,-0.01074316,0.00392778,-0.13138999,0.00589941,-0.
 13074419,-0.02355592,0.00101166,-0.00672021,0.01371783,-0.00063020,0.0
 1034430,0.14120092,-0.00626390,0.12713232,-0.00038528,0.00009216,0.000
 00013,-0.00002713,-0.00000749,-0.00000011,0.00001209,-0.00020642,-0.00
 002746,0.00001886,0.00018463,0.00002716,0.00038146,0.00009184,0.004471
 35,0.00004244,-0.00000955,-0.00042754,0.00001535,0.00000621,-0.0004034
 7,-0.00001411,-0.00002562,-0.00035573,-0.00001697,-0.00006288,-0.00328
 461,0.00000013,0.00004674,-0.00038290,-0.00000524,-0.00024051,0.000026
 31,-0.00002264,0.00011296,-0.00001186,0.00002747,0.00010751,-0.0000122
 3,0.00000028,-0.00002670,0.00038068\\0.00002177,0.00161995,0.00003440,
 -0.00000126,0.00000016,0.00000054,-0.00001879,0.00000490,-0.00001173,0
 .00002222,0.00000991,-0.00001202,-0.00002394,-0.00163492,-0.00001119\\
 \@


 IT MATTERS NOT HOW DEEP YOU PLOW,
 BUT HOW LONG YOU STAY IN THE FURROW.
 Job cpu time:       0 days  0 hours  7 minutes 31.6 seconds.
 File lengths (MBytes):  RWF=     66 Int=      0 D2E=      0 Chk=      3 Scr=      1
 Normal termination of Gaussian 09 at Sat Jun  3 08:54:26 2023.
