 Entering Gaussian System, Link 0=g09
 Input=geom.com
 Output=geom.log
 Initial command:
 /software/cinetica/g09d1/g09d01/d01/build-node-6-2-59348/src/main/l1.exe "/scratch/cc/139147/Gau-207609.inp" -scrdir="/scratch/cc/139147/"
 Entering Link 1 = /software/cinetica/g09d1/g09d01/d01/build-node-6-2-59348/src/main/l1.exe PID=    207610.
  
 Copyright (c) 1988,1990,1992,1993,1995,1998,2003,2009,2013,
            Gaussian, Inc.  All Rights Reserved.
  
 This is part of the Gaussian(R) 09 program.  It is based on
 the Gaussian(R) 03 system (copyright 2003, Gaussian, Inc.),
 the Gaussian(R) 98 system (copyright 1998, Gaussian, Inc.),
 the Gaussian(R) 94 system (copyright 1995, Gaussian, Inc.),
 the Gaussian 92(TM) system (copyright 1992, Gaussian, Inc.),
 the Gaussian 90(TM) system (copyright 1990, Gaussian, Inc.),
 the Gaussian 88(TM) system (copyright 1988, Gaussian, Inc.),
 the Gaussian 86(TM) system (copyright 1986, Carnegie Mellon
 University), and the Gaussian 82(TM) system (copyright 1983,
 Carnegie Mellon University). Gaussian is a federally registered
 trademark of Gaussian, Inc.
  
 This software contains proprietary and confidential information,
 including trade secrets, belonging to Gaussian, Inc.
  
 This software is provided under written license and may be
 used, copied, transmitted, or stored only in accord with that
 written license.
  
 The following legend is applicable only to US Government
 contracts under FAR:
  
                    RESTRICTED RIGHTS LEGEND
  
 Use, reproduction and disclosure by the US Government is
 subject to restrictions as set forth in subparagraphs (a)
 and (c) of the Commercial Computer Software - Restricted
 Rights clause in FAR 52.227-19.
  
 Gaussian, Inc.
 340 Quinnipiac St., Bldg. 40, Wallingford CT 06492
  
  
 ---------------------------------------------------------------
 Warning -- This program may not be used in any manner that
 competes with the business of Gaussian, Inc. or will provide
 assistance to any competitor of Gaussian, Inc.  The licensee
 of this program is prohibited from giving any competitor of
 Gaussian, Inc. access to this program.  By using this program,
 the user acknowledges that Gaussian, Inc. is engaged in the
 business of creating and licensing software in the field of
 computational chemistry and represents and warrants to the
 licensee that it is not a competitor of Gaussian, Inc. and that
 it will not use this program in any manner prohibited above.
 ---------------------------------------------------------------
  

 Cite this work as:
 Gaussian 09, Revision D.01,
 M. J. Frisch, G. W. Trucks, H. B. Schlegel, G. E. Scuseria, 
 M. A. Robb, J. R. Cheeseman, G. Scalmani, V. Barone, B. Mennucci, 
 G. A. Petersson, H. Nakatsuji, M. Caricato, X. Li, H. P. Hratchian, 
 A. F. Izmaylov, J. Bloino, G. Zheng, J. L. Sonnenberg, M. Hada, 
 M. Ehara, K. Toyota, R. Fukuda, J. Hasegawa, M. Ishida, T. Nakajima, 
 Y. Honda, O. Kitao, H. Nakai, T. Vreven, J. A. Montgomery, Jr., 
 J. E. Peralta, F. Ogliaro, M. Bearpark, J. J. Heyd, E. Brothers, 
 K. N. Kudin, V. N. Staroverov, T. Keith, R. Kobayashi, J. Normand, 
 K. Raghavachari, A. Rendell, J. C. Burant, S. S. Iyengar, J. Tomasi, 
 M. Cossi, N. Rega, J. M. Millam, M. Klene, J. E. Knox, J. B. Cross, 
 V. Bakken, C. Adamo, J. Jaramillo, R. Gomperts, R. E. Stratmann, 
 O. Yazyev, A. J. Austin, R. Cammi, C. Pomelli, J. W. Ochterski, 
 R. L. Martin, K. Morokuma, V. G. Zakrzewski, G. A. Voth, 
 P. Salvador, J. J. Dannenberg, S. Dapprich, A. D. Daniels, 
 O. Farkas, J. B. Foresman, J. V. Ortiz, J. Cioslowski, 
 and D. J. Fox, Gaussian, Inc., Wallingford CT, 2013.
 
 ******************************************
 Gaussian 09:  EM64L-G09RevD.01 24-Apr-2013
                27-May-2023 
 ******************************************
 %mem=400MW
 %chk=tmp
 %NProcShared= 32
 Will use up to   32 processors via shared memory.
 ----------------------------------------------------------------------
 # uwb97xd/aug-cc-pvtz opt=(noeig,intern,maxcyc=50) # int=ultrafine nos
 ym iop(7/33=1) guess=(mix,always)
 ----------------------------------------------------------------------
 1/6=50,10=7,11=1,14=-1,18=40,26=4,38=1/1,3;
 2/12=2,15=1,17=6,18=5,29=3,40=1/2;
 3/5=16,6=1,7=10,11=2,16=1,25=1,30=1,71=1,74=-58,75=-5,116=2/1,2,3;
 4/13=-1/1;
 5/5=2,38=5/2;
 6/7=2,8=2,9=2,10=2,28=1/1;
 7/29=1,30=1,33=1/1,2,3,16;
 1/6=50,10=7,11=1,14=-1,18=40,26=4/3(2);
 2/15=1,29=3/2;
 99//99;
 2/15=1,29=3/2;
 3/5=16,6=1,7=10,11=2,16=1,25=1,30=1,71=1,74=-58,75=-5,116=2/1,2,3;
 4/13=-1/1;
 5/5=2,38=5/2;
 7/30=1,33=1/1,2,3,16;
 1/6=50,11=1,14=-1,18=40,26=4/3(-5);
 2/15=1,29=3/2;
 6/7=2,8=2,9=2,10=2,19=2,28=1/1;
 99/9=1/99;
 ------
 geom 0
 ------
 Symbolic Z-matrix:
 Charge =  0 Multiplicity = 1
 C1
 H2                   C1   R1
 H3                   C1   R2       H2   A2
 H4                   C1   R3       H2   A3       H3   D3       0
 C21                  1    rts      2    aabs1    3    babs1    0
 H22                  C21  R21      1    aabs2    2    babs2    0
 H23                  C21  R22      H22  A22      1    babs3    0
 H24                  C21  R23      H22  A23      H23  D23      0
       Variables:
  BABS3               109.6043                   
  BABS2                60.0158                   
  AABS2               101.8501                   
  BABS1               109.6326                   
  AABS1               101.8447                   
       Constants:
  D3                  179.8076                   
  R21                   1.0782                   
  R22                   1.0782                   
  R23                   1.0782                   
  A22                 119.9721                   
  A23                 120.0207                   
  D23                 179.8076                   
  A3                  120.0207                   
  A2                  119.9721                   
  R3                    1.0782                   
  R2                    1.0782                   
  R1                    1.0782                   
  RTS                   2.4                      
 

 GradGradGradGradGradGradGradGradGradGradGradGradGradGradGradGradGradGrad
 Berny optimization.
 Initialization pass.
                       ----------------------------
                       !    Initial Parameters    !
                       ! (Angstroms and Degrees)  !
 ----------------------                            ----------------------
 !      Name          Value   Derivative information (Atomic Units)     !
 ------------------------------------------------------------------------
 !      BABS3      109.6043   estimate D2E/DX2                          !
 !      BABS2       60.0158   estimate D2E/DX2                          !
 !      AABS2      101.8501   estimate D2E/DX2                          !
 !      BABS1      109.6326   estimate D2E/DX2                          !
 !      AABS1      101.8447   estimate D2E/DX2                          !
 !       D3        179.8076   Frozen                                    !
 !       R21         1.0782   Frozen                                    !
 !       R22         1.0782   Frozen                                    !
 !       R23         1.0782   Frozen                                    !
 !       A22       119.9721   Frozen                                    !
 !       A23       120.0207   Frozen                                    !
 !       D23       179.8076   Frozen                                    !
 !       A3        120.0207   Frozen                                    !
 !       A2        119.9721   Frozen                                    !
 !       R3          1.0782   Frozen                                    !
 !       R2          1.0782   Frozen                                    !
 !       R1          1.0782   Frozen                                    !
 !       RTS         2.4      Frozen                                    !
 ------------------------------------------------------------------------
 Trust Radius=3.00D-01 FncErr=1.00D-07 GrdErr=1.00D-06
 Number of steps in this run=     50 maximum allowed number of steps=    100.
 GradGradGradGradGradGradGradGradGradGradGradGradGradGradGradGradGradGrad

 ---------------------------------------------------------------------------------------------------
                            Z-MATRIX (ANGSTROMS AND DEGREES)
   CD    Cent   Atom    N1       Length/X        N2       Alpha/Y        N3        Beta/Z          J
 ---------------------------------------------------------------------------------------------------
      1      1  C 
      2      2  H        1   1.078200(     1)
      3      3  H        1   1.078200(     2)      2  119.972(     8)
      4      4  H        1   1.078200(     3)      2  120.021(     9)      3  179.808(    14)      0
      5      5  C        1   2.400000(     4)      2  101.845(    10)      3  109.633(    15)      0
      6      6  H        5   1.078200(     5)      1  101.850(    11)      2   60.016(    16)      0
      7      7  H        5   1.078200(     6)      6  119.972(    12)      1  109.604(    17)      0
      8      8  H        5   1.078200(     7)      6  120.021(    13)      7  179.808(    18)      0
 ---------------------------------------------------------------------------------------------------
                         Z-Matrix orientation:                         
 ---------------------------------------------------------------------
 Center     Atomic      Atomic             Coordinates (Angstroms)
 Number     Number       Type             X           Y           Z
 ---------------------------------------------------------------------
      1          6           0        0.000000    0.000000    0.000000
      2          1           0        0.000000    0.000000    1.078200
      3          1           0        0.934011    0.000000   -0.538645
      4          1           0       -0.933548   -0.003135   -0.539437
      5          6           0       -0.789200   -2.212348   -0.492623
      6          1           0       -1.759237   -2.211309   -0.021940
      7          1           0        0.010876   -2.803178   -0.076314
      8          1           0       -0.620056   -1.625279   -1.381023
 ---------------------------------------------------------------------
                    Distance matrix (angstroms):
                    1          2          3          4          5
     1  C    0.000000
     2  H    1.078200   0.000000
     3  H    1.078200   1.867235   0.000000
     4  H    1.078200   1.867692   1.867562   0.000000
     5  C    2.400000   2.825740   2.804650   2.214419   0.000000
     6  H    2.825825   3.032344   3.522848   2.413628   1.078200
     7  H    2.804238   3.031638   2.987263   2.991097   1.078200
     8  H    2.221087   3.012272   2.401303   1.854156   1.078200
                    6          7          8
     6  H    0.000000
     7  H    1.867235   0.000000
     8  H    1.867692   1.867562   0.000000
 Symmetry turned off by external request.
 Stoichiometry    C2H6
 Framework group  C1[X(C2H6)]
 Deg. of freedom    18
 Full point group                 C1      NOp   1
 Rotational constants (GHZ):     77.8461124     10.7697309     10.7120921
 Standard basis: Aug-CC-pVTZ (5D, 7F)
   230 basis functions,   306 primitive gaussians,   260 cartesian basis functions
     9 alpha electrons        9 beta electrons
       nuclear repulsion energy        36.4353859856 Hartrees.
 NAtoms=    8 NActive=    8 NUniq=    8 SFac= 1.00D+00 NAtFMM=   60 NAOKFM=F Big=F
 Integral buffers will be    131072 words long.
 Raffenetti 2 integral format.
 Two-electron integral symmetry is turned off.
 Nuclear repulsion after empirical dispersion term =       36.4331753570 Hartrees.
 One-electron integrals computed using PRISM.
 NBasis=   230 RedAO= T EigKep=  4.21D-05  NBF=   230
 NBsUse=   230 1.00D-06 EigRej= -1.00D+00 NBFU=   230
 ExpMin= 2.53D-02 ExpMax= 8.24D+03 ExpMxC= 2.81D+02 IAcc=3 IRadAn=         5 AccDes= 0.00D+00
 Harris functional with IExCor= 4639 and IRadAn=       5 diagonalized for initial guess.
 HarFok:  IExCor= 4639 AccDes= 0.00D+00 IRadAn=         5 IDoV= 1 UseB2=F ITyADJ=14
 ICtDFT=  3500011 ScaDFX=  1.000000  1.000000  1.000000  1.000000
 FoFCou: FMM=F IPFlag=           0 FMFlag=      100000 FMFlg1=           0
         NFxFlg=           0 DoJE=T BraDBF=F KetDBF=T FulRan=T
         wScrn=  0.000000 ICntrl=     500 IOpCl=  0 I1Cent=   200000004 NGrid=           0
         NMat0=    1 NMatS0=      1 NMatT0=    0 NMatD0=    1 NMtDS0=    0 NMtDT0=    0
 Symmetry not used in FoFCou.
 Mixing orbitals, IMix= 1 IMixAn=  0 NRI=1 NE=    9 Coef=  7.07106781D-01  7.07106781D-01
 Mixing orbitals, IMix= 1 IMixAn=  0 NRI=1 NE=    9 Coef= -7.07106781D-01  7.07106781D-01
 Initial guess <Sx>= 0.0000 <Sy>= 0.0000 <Sz>= 0.0000 <S**2>= 1.0000 S= 0.6180
 Requested convergence on RMS density matrix=1.00D-08 within 128 cycles.
 Requested convergence on MAX density matrix=1.00D-06.
 Requested convergence on             energy=1.00D-06.
 No special actions if energy rises.
 SCF Done:  E(UwB97XD) =  -79.6928320487     A.U. after   14 cycles
            NFock= 14  Conv=0.70D-08     -V/T= 2.0081
 <Sx>= 0.0000 <Sy>= 0.0000 <Sz>= 0.0000 <S**2>= 0.3367 S= 0.2660
 <L.S>=  0.00000000000    
 Annihilation of the first spin contaminant:
 S**2 before annihilation     0.3367,   after     0.0048

 **********************************************************************

            Population analysis using the SCF density.

 **********************************************************************

 Alpha  occ. eigenvalues --  -10.29892 -10.29227  -0.79726  -0.73667  -0.52909
 Alpha  occ. eigenvalues --   -0.51456  -0.49106  -0.47320  -0.30129
 Alpha virt. eigenvalues --    0.01854   0.03287   0.04576   0.04762   0.05815
 Alpha virt. eigenvalues --    0.06968   0.07409   0.10627   0.11606   0.12182
 Alpha virt. eigenvalues --    0.13043   0.14144   0.14434   0.14741   0.16673
 Alpha virt. eigenvalues --    0.19376   0.19752   0.22519   0.23161   0.24137
 Alpha virt. eigenvalues --    0.25096   0.28993   0.29668   0.30983   0.31020
 Alpha virt. eigenvalues --    0.31984   0.34841   0.34960   0.35607   0.36206
 Alpha virt. eigenvalues --    0.37302   0.37662   0.37980   0.38857   0.40093
 Alpha virt. eigenvalues --    0.40469   0.40813   0.41203   0.41866   0.42709
 Alpha virt. eigenvalues --    0.42801   0.44008   0.45581   0.46041   0.46187
 Alpha virt. eigenvalues --    0.48339   0.50604   0.51686   0.53589   0.63279
 Alpha virt. eigenvalues --    0.66368   0.69965   0.71081   0.71781   0.72258
 Alpha virt. eigenvalues --    0.73099   0.73719   0.74295   0.77930   0.78048
 Alpha virt. eigenvalues --    0.78874   0.80051   0.81822   0.82751   0.84615
 Alpha virt. eigenvalues --    0.84966   0.85369   0.86089   0.89364   0.91453
 Alpha virt. eigenvalues --    0.91935   0.92804   0.95544   0.95857   0.98035
 Alpha virt. eigenvalues --    1.01045   1.02063   1.04728   1.06293   1.07080
 Alpha virt. eigenvalues --    1.08698   1.09122   1.09814   1.10297   1.13210
 Alpha virt. eigenvalues --    1.15341   1.15933   1.18058   1.19101   1.19764
 Alpha virt. eigenvalues --    1.23784   1.27641   1.29153   1.30101   1.35586
 Alpha virt. eigenvalues --    1.36069   1.41036   1.41488   1.44376   1.46316
 Alpha virt. eigenvalues --    1.48263   1.48526   1.50309   1.52027   1.53566
 Alpha virt. eigenvalues --    1.53705   1.55202   1.56109   1.57008   1.59653
 Alpha virt. eigenvalues --    1.60732   1.61162   1.63117   1.64032   1.70351
 Alpha virt. eigenvalues --    1.71065   1.76677   1.78014   1.81375   1.81633
 Alpha virt. eigenvalues --    1.83743   1.84512   1.85228   1.97642   1.99711
 Alpha virt. eigenvalues --    2.03930   2.04748   2.05736   2.06281   2.07313
 Alpha virt. eigenvalues --    2.14225   2.14356   2.14461   2.18846   2.38001
 Alpha virt. eigenvalues --    2.85877   2.86391   2.89541   2.93413   2.98636
 Alpha virt. eigenvalues --    2.99918   3.03909   3.04989   3.13412   3.14305
 Alpha virt. eigenvalues --    3.30943   3.32738   3.34421   3.36432   3.37161
 Alpha virt. eigenvalues --    3.38340   3.42327   3.43360   3.44468   3.45694
 Alpha virt. eigenvalues --    3.47891   3.48147   3.50264   3.53849   3.59055
 Alpha virt. eigenvalues --    3.61450   3.69465   3.71306   3.73844   3.76184
 Alpha virt. eigenvalues --    3.76852   3.77683   3.81691   3.82852   3.84274
 Alpha virt. eigenvalues --    3.92953   3.98304   4.05983   4.06942   4.09833
 Alpha virt. eigenvalues --    4.12021   4.15701   4.16229   4.20046   4.21392
 Alpha virt. eigenvalues --    4.22423   4.27552   4.28528   4.57990   4.58366
 Alpha virt. eigenvalues --    4.61125   4.62925   4.66230   4.66684   4.67071
 Alpha virt. eigenvalues --    4.68119   4.71115   4.82549   4.83071   4.92179
 Alpha virt. eigenvalues --    4.96702   4.97536   5.05975   5.07148   5.09328
 Alpha virt. eigenvalues --    5.12974   5.14144   5.14892   5.18588   5.19868
 Alpha virt. eigenvalues --    5.23375   5.25516   5.29538   5.37009   5.37825
 Alpha virt. eigenvalues --    5.56828   6.12048   6.13750   6.26097   6.27150
 Alpha virt. eigenvalues --    6.32120   6.34727   6.42670   6.45453  16.21351
 Alpha virt. eigenvalues --   16.82754
  Beta  occ. eigenvalues --  -10.29876 -10.29241  -0.79718  -0.73673  -0.52904
  Beta  occ. eigenvalues --   -0.51452  -0.49109  -0.47316  -0.30138
  Beta virt. eigenvalues --    0.01860   0.03289   0.04577   0.04762   0.05812
  Beta virt. eigenvalues --    0.06968   0.07413   0.10620   0.11610   0.12182
  Beta virt. eigenvalues --    0.13046   0.14150   0.14429   0.14742   0.16671
  Beta virt. eigenvalues --    0.19376   0.19756   0.22521   0.23164   0.24126
  Beta virt. eigenvalues --    0.25099   0.29017   0.29642   0.30939   0.31068
  Beta virt. eigenvalues --    0.31985   0.34820   0.34988   0.35615   0.36207
  Beta virt. eigenvalues --    0.37285   0.37660   0.37991   0.38855   0.40091
  Beta virt. eigenvalues --    0.40481   0.40811   0.41210   0.41854   0.42698
  Beta virt. eigenvalues --    0.42824   0.44007   0.45581   0.46047   0.46169
  Beta virt. eigenvalues --    0.48345   0.50603   0.51678   0.53589   0.63302
  Beta virt. eigenvalues --    0.66358   0.69908   0.71082   0.71790   0.72314
  Beta virt. eigenvalues --    0.73127   0.73736   0.74245   0.77903   0.78065
  Beta virt. eigenvalues --    0.78886   0.80050   0.81820   0.82739   0.84625
  Beta virt. eigenvalues --    0.84975   0.85357   0.86109   0.89357   0.91505
  Beta virt. eigenvalues --    0.91871   0.92813   0.95545   0.95859   0.98027
  Beta virt. eigenvalues --    1.01088   1.02013   1.04724   1.06285   1.07088
  Beta virt. eigenvalues --    1.08775   1.09014   1.09861   1.10297   1.13192
  Beta virt. eigenvalues --    1.15339   1.15945   1.18080   1.19104   1.19764
  Beta virt. eigenvalues --    1.23765   1.27649   1.29197   1.30039   1.35612
  Beta virt. eigenvalues --    1.36036   1.41107   1.41429   1.44453   1.46238
  Beta virt. eigenvalues --    1.48280   1.48519   1.50303   1.52023   1.53575
  Beta virt. eigenvalues --    1.53712   1.55213   1.56122   1.56996   1.59648
  Beta virt. eigenvalues --    1.60637   1.61240   1.63202   1.63968   1.70319
  Beta virt. eigenvalues --    1.71100   1.76660   1.77982   1.81362   1.81650
  Beta virt. eigenvalues --    1.83740   1.84475   1.85291   1.97630   1.99687
  Beta virt. eigenvalues --    2.04239   2.04530   2.05672   2.06307   2.07315
  Beta virt. eigenvalues --    2.14203   2.14380   2.14476   2.18820   2.38017
  Beta virt. eigenvalues --    2.85836   2.86734   2.89076   2.93565   2.98432
  Beta virt. eigenvalues --    3.00115   3.03874   3.04998   3.13354   3.14361
  Beta virt. eigenvalues --    3.30929   3.32957   3.34165   3.36530   3.37162
  Beta virt. eigenvalues --    3.38402   3.42279   3.43328   3.44472   3.45667
  Beta virt. eigenvalues --    3.47685   3.48367   3.50218   3.53879   3.59041
  Beta virt. eigenvalues --    3.61474   3.69471   3.71317   3.73815   3.76161
  Beta virt. eigenvalues --    3.76833   3.77686   3.81765   3.82861   3.84264
  Beta virt. eigenvalues --    3.92918   3.98352   4.05964   4.07081   4.09722
  Beta virt. eigenvalues --    4.12078   4.15620   4.16299   4.20017   4.21340
  Beta virt. eigenvalues --    4.22452   4.27583   4.28509   4.58139   4.58182
  Beta virt. eigenvalues --    4.61127   4.62926   4.66281   4.66695   4.67052
  Beta virt. eigenvalues --    4.68109   4.71097   4.82418   4.83214   4.92248
  Beta virt. eigenvalues --    4.96695   4.97466   5.05991   5.07165   5.09306
  Beta virt. eigenvalues --    5.12947   5.14046   5.14937   5.18657   5.19895
  Beta virt. eigenvalues --    5.23342   5.25538   5.29541   5.37002   5.37819
  Beta virt. eigenvalues --    5.56834   6.12010   6.13790   6.26079   6.27176
  Beta virt. eigenvalues --    6.32115   6.34725   6.42645   6.45480  16.21346
  Beta virt. eigenvalues --   16.82759
          Condensed to atoms (all electrons):
               1          2          3          4          5          6
     1  C    5.963072   0.355638   0.348852   0.320709   0.085343   0.000440
     2  H    0.355638   0.278594   0.010476   0.009938  -0.002723  -0.000513
     3  H    0.348852   0.010476   0.276449   0.010353   0.001172  -0.000802
     4  H    0.320709   0.009938   0.010353   0.285454   0.006682  -0.000922
     5  C    0.085343  -0.002723   0.001172   0.006682   5.961738   0.350711
     6  H    0.000440  -0.000513  -0.000802  -0.000922   0.350711   0.276194
     7  H   -0.002533  -0.000272  -0.000530  -0.001392   0.353377   0.010796
     8  H    0.005754  -0.001352  -0.000857  -0.002207   0.321201   0.010196
               7          8
     1  C   -0.002533   0.005754
     2  H   -0.000272  -0.001352
     3  H   -0.000530  -0.000857
     4  H   -0.001392  -0.002207
     5  C    0.353377   0.321201
     6  H    0.010796   0.010196
     7  H    0.277936   0.010074
     8  H    0.010074   0.285340
          Atomic-Atomic Spin Densities.
               1          2          3          4          5          6
     1  C   -0.662011  -0.001969   0.000639   0.010413  -0.000535   0.003722
     2  H   -0.001969   0.024834  -0.000770  -0.000230  -0.008179  -0.000710
     3  H    0.000639  -0.000770   0.019000  -0.002815  -0.003686   0.000038
     4  H    0.010413  -0.000230  -0.002815   0.018184  -0.005393  -0.000344
     5  C   -0.000535  -0.008179  -0.003686  -0.005393   0.663157  -0.000280
     6  H    0.003722  -0.000710   0.000038  -0.000344  -0.000280  -0.019510
     7  H    0.008346  -0.000019   0.000797   0.001045   0.001990   0.000680
     8  H    0.004982  -0.001050   0.000429  -0.000053  -0.010438   0.002644
               7          8
     1  C    0.008346   0.004982
     2  H   -0.000019  -0.001050
     3  H    0.000797   0.000429
     4  H    0.001045  -0.000053
     5  C    0.001990  -0.010438
     6  H    0.000680   0.002644
     7  H   -0.024729   0.000287
     8  H    0.000287  -0.018004
 Mulliken charges and spin densities:
               1          2
     1  C   -1.077275  -0.636414
     2  H    0.350215   0.011906
     3  H    0.354886   0.013633
     4  H    0.371384   0.020806
     5  C   -1.077502   0.636635
     6  H    0.353900  -0.013761
     7  H    0.352543  -0.011602
     8  H    0.371849  -0.021203
 Sum of Mulliken charges =  -0.00000  -0.00000
 Mulliken charges and spin densities with hydrogens summed into heavy atoms:
               1          2
     1  C   -0.000790  -0.590069
     5  C    0.000790   0.590069
 Electronic spatial extent (au):  <R**2>=            245.1991
 Charge=             -0.0000 electrons
 Dipole moment (field-independent basis, Debye):
    X=              0.0208    Y=             -0.0242    Z=              0.0417  Tot=              0.0525
 Quadrupole moment (field-independent basis, Debye-Ang):
   XX=            -14.4741   YY=            -17.5276   ZZ=            -15.2278
   XY=             -0.2261   XZ=             -0.3900   YZ=             -0.9332
 Traceless Quadrupole moment (field-independent basis, Debye-Ang):
   XX=              1.2691   YY=             -1.7844   ZZ=              0.5154
   XY=             -0.2261   XZ=             -0.3900   YZ=             -0.9332
 Octapole moment (field-independent basis, Debye-Ang**2):
  XXX=             16.9379  YYY=             55.1336  ZZZ=             12.3941  XYY=              8.5654
  XXY=             16.3450  XXZ=              3.9406  XZZ=              6.7592  YZZ=             18.9917
  YYZ=              8.2285  XYZ=              1.4258
 Hexadecapole moment (field-independent basis, Debye-Ang**3):
 XXXX=            -55.7328 YYYY=           -269.0210 ZZZZ=            -40.9315 XXXY=            -37.1114
 XXXZ=            -10.7105 YYYX=            -50.1968 YYYZ=            -39.0637 ZZZX=             -9.4086
 ZZZY=            -26.1334 XXYY=            -52.2196 XXZZ=            -17.9993 YYZZ=            -56.2295
 XXYZ=            -10.8134 YYXZ=             -7.5201 ZZXY=            -15.4569
 N-N= 3.643317535702D+01 E-N=-2.565981754267D+02  KE= 7.905636625021D+01
                          Isotropic Fermi Contact Couplings
        Atom                 a.u.       MegaHertz       Gauss      10(-4) cm-1
     1  C(13)              0.00402       2.25953       0.80626       0.75370
     2  H(1)               0.00896      20.02819       7.14656       6.68069
     3  H(1)               0.00844      18.87146       6.73381       6.29484
     4  H(1)               0.01088      24.32111       8.67838       8.11265
     5  C(13)             -0.00330      -1.85280      -0.66112      -0.61803
     6  H(1)              -0.00843     -18.84172      -6.72320      -6.28492
     7  H(1)              -0.00909     -20.30799      -7.24639      -6.77402
     8  H(1)              -0.01081     -24.16798      -8.62374      -8.06157
 --------------------------------------------------------
       Center         ----  Spin Dipole Couplings  ----
                      3XX-RR        3YY-RR        3ZZ-RR
 --------------------------------------------------------
     1   Atom        0.342753     -0.679717      0.336964
     2   Atom        0.042685      0.001927     -0.044611
     3   Atom       -0.020634      0.001895      0.018740
     4   Atom       -0.029568      0.015120      0.014448
     5   Atom       -0.260509      0.300997     -0.040488
     6   Atom        0.030841     -0.019231     -0.011610
     7   Atom        0.012838      0.001907     -0.014746
     8   Atom       -0.033503     -0.000684      0.034188
 --------------------------------------------------------
                        XY            XZ            YZ
 --------------------------------------------------------
     1   Atom       -0.018978      0.001969     -0.018600
     2   Atom        0.001795      0.003134      0.004902
     3   Atom        0.003857      0.039115     -0.000517
     4   Atom        0.004230     -0.037648      0.001607
     5   Atom        0.221103      0.154462      0.440713
     6   Atom        0.004881     -0.027723      0.020219
     7   Atom       -0.026211      0.032700      0.001599
     8   Atom        0.010257     -0.008328     -0.027955
 --------------------------------------------------------


 ---------------------------------------------------------------------------------
              Anisotropic Spin Dipole Couplings in Principal Axis System
 ---------------------------------------------------------------------------------

       Atom             a.u.   MegaHertz   Gauss  10(-4) cm-1        Axes

              Baa    -0.6804   -91.304   -32.580   -30.456  0.0185  0.9997  0.0182
     1 C(13)  Bbb     0.3365    45.154    16.112    15.062 -0.3305 -0.0111  0.9437
              Bcc     0.3439    46.150    16.467    15.394  0.9436 -0.0235  0.3302
 
              Baa    -0.0452   -24.127    -8.609    -8.048 -0.0334 -0.1021  0.9942
     2 H(1)   Bbb     0.0023     1.242     0.443     0.414 -0.0520  0.9936  0.1003
              Bcc     0.0429    22.885     8.166     7.634  0.9981  0.0483  0.0385
 
              Baa    -0.0450   -24.014    -8.569    -8.010  0.8496 -0.0756 -0.5219
     3 H(1)   Bbb     0.0021     1.122     0.400     0.374  0.0441  0.9964 -0.0726
              Bcc     0.0429    22.891     8.168     7.636  0.5255  0.0387  0.8499
 
              Baa    -0.0515   -27.461    -9.799    -9.160  0.8657 -0.0670  0.4961
     4 H(1)   Bbb     0.0154     8.214     2.931     2.740  0.0410  0.9972  0.0631
              Bcc     0.0361    19.247     6.868     6.420 -0.4989 -0.0343  0.8660
 
              Baa    -0.3434   -46.081   -16.443   -15.371 -0.3786 -0.4305  0.8194
     5 C(13)  Bbb    -0.3368   -45.197   -16.127   -15.076  0.8836 -0.4317  0.1814
              Bcc     0.6802    91.278    32.570    30.447  0.2756  0.7927  0.5438
 
              Baa    -0.0429   -22.881    -8.164    -7.632  0.3037 -0.6545  0.6924
     6 H(1)   Bbb    -0.0020    -1.070    -0.382    -0.357  0.3563  0.7520  0.5546
              Bcc     0.0449    23.951     8.546     7.989  0.8836 -0.0783 -0.4616
 
              Baa    -0.0429   -22.863    -8.158    -7.626 -0.5941 -0.3734  0.7125
     7 H(1)   Bbb    -0.0025    -1.359    -0.485    -0.453  0.1716  0.8065  0.5657
              Bcc     0.0454    24.222     8.643     8.080  0.7859 -0.4584  0.4151
 
              Baa    -0.0364   -19.446    -6.939    -6.487  0.9625 -0.2713  0.0061
     8 H(1)   Bbb    -0.0150    -8.018    -2.861    -2.674  0.2304  0.8289  0.5098
              Bcc     0.0515    27.464     9.800     9.161 -0.1434 -0.4893  0.8603
 

 ---------------------------------------------------------------------------------

 DipInt: DoE/N= T T RetVal/Mat= T F Init=T NMatP=  1 IDeriv=0 Min/MaxMlt=  1  1
 Entering OneElI...
 Multipole integrals L=1 to 1 MinM= 0 MaxM= 0.
 Requested accuracy = 0.1000D-12
 PrsmSu:  NPrtUS=   1 ThrOK=F IAlg=1 NPAlg=1 LenDen=           0.
 Prism:   IPart=     0 DynPar=F LinDyn=F Incr=          34.
 PRISM was handed   419147675 working-precision words and  3403 shell-pairs
 IPart=  0 NShTot=        3403 NBatch=          42 AvBLen=        81.0
 PrSmSu:  NxtVal=             35.
 Entering OneElI...
 Calculate overlap and kinetic energy integrals
    NBasis = 260  MinDer = 1  MaxDer = 1
 Requested accuracy = 0.1000D-12
 PrsmSu:  NPrtUS=  32 ThrOK=T IAlg=1 NPAlg=1 LenDen=           0.
 Prism:   IPart=     0 DynPar=F LinDyn=F Incr=           1.
 PRISM was handed    13041243 working-precision words and  3403 shell-pairs
 PRISM was handed    13041243 working-precision words and  3403 shell-pairs
 PRISM was handed    13041243 working-precision words and  3403 shell-pairs
 PRISM was handed    13041243 working-precision words and  3403 shell-pairs
 PRISM was handed    13041243 working-precision words and  3403 shell-pairs
 PRISM was handed    13041243 working-precision words and  3403 shell-pairs
 PRISM was handed    13041243 working-precision words and  3403 shell-pairs
 PRISM was handed    13041243 working-precision words and  3403 shell-pairs
 PRISM was handed    13041243 working-precision words and  3403 shell-pairs
 PRISM was handed    13041243 working-precision words and  3403 shell-pairs
 PRISM was handed    13041243 working-precision words and  3403 shell-pairs
 PRISM was handed    13041243 working-precision words and  3403 shell-pairs
 PRISM was handed    13041243 working-precision words and  3403 shell-pairs
 PRISM was handed    13041243 working-precision words and  3403 shell-pairs
 PRISM was handed    13041243 working-precision words and  3403 shell-pairs
 PRISM was handed    13041243 working-precision words and  3403 shell-pairs
 PRISM was handed    13041243 working-precision words and  3403 shell-pairs
 PRISM was handed    13041243 working-precision words and  3403 shell-pairs
 PRISM was handed    13041243 working-precision words and  3403 shell-pairs
 PRISM was handed    13041243 working-precision words and  3403 shell-pairs
 PRISM was handed    13041243 working-precision words and  3403 shell-pairs
 PRISM was handed    13041243 working-precision words and  3403 shell-pairs
 PRISM was handed    13041243 working-precision words and  3403 shell-pairs
 PRISM was handed    13041243 working-precision words and  3403 shell-pairs
 PRISM was handed    13041243 working-precision words and  3403 shell-pairs
 PRISM was handed    13041243 working-precision words and  3403 shell-pairs
 PRISM was handed    13041243 working-precision words and  3403 shell-pairs
 PRISM was handed    13041243 working-precision words and  3403 shell-pairs
 PRISM was handed    13041243 working-precision words and  3403 shell-pairs
 PRISM was handed    13041243 working-precision words and  3403 shell-pairs
 PRISM was handed    13041243 working-precision words and  3403 shell-pairs
 PRISM was handed    13041243 working-precision words and  3403 shell-pairs
 IPart=  0 NShTot=         137 NBatch=          45 AvBLen=         3.0
 IPart= 21 NShTot=          97 NBatch=          21 AvBLen=         4.6
 IPart= 25 NShTot=          96 NBatch=          20 AvBLen=         4.8
 IPart=  8 NShTot=         112 NBatch=          24 AvBLen=         4.7
 IPart= 18 NShTot=          97 NBatch=          21 AvBLen=         4.6
 IPart= 29 NShTot=          96 NBatch=          20 AvBLen=         4.8
 IPart= 16 NShTot=          99 NBatch=          21 AvBLen=         4.7
 IPart= 12 NShTot=         105 NBatch=          21 AvBLen=         5.0
 IPart= 14 NShTot=         105 NBatch=          21 AvBLen=         5.0
 IPart= 10 NShTot=         110 NBatch=          22 AvBLen=         5.0
 IPart= 27 NShTot=          96 NBatch=          20 AvBLen=         4.8
 IPart=  2 NShTot=         125 NBatch=          33 AvBLen=         3.8
 IPart=  9 NShTot=         112 NBatch=          24 AvBLen=         4.7
 IPart= 23 NShTot=          97 NBatch=          21 AvBLen=         4.6
 IPart= 28 NShTot=          96 NBatch=          20 AvBLen=         4.8
 IPart=  4 NShTot=         120 NBatch=          31 AvBLen=         3.9
 IPart= 30 NShTot=          96 NBatch=          20 AvBLen=         4.8
 IPart= 31 NShTot=          96 NBatch=          20 AvBLen=         4.8
 IPart=  6 NShTot=         116 NBatch=          27 AvBLen=         4.3
 IPart= 26 NShTot=          96 NBatch=          20 AvBLen=         4.8
 IPart= 19 NShTot=          97 NBatch=          21 AvBLen=         4.6
 IPart= 11 NShTot=         108 NBatch=          21 AvBLen=         5.1
 IPart= 13 NShTot=         105 NBatch=          21 AvBLen=         5.0
 IPart=  5 NShTot=         120 NBatch=          31 AvBLen=         3.9
 IPart= 15 NShTot=         105 NBatch=          21 AvBLen=         5.0
 IPart= 22 NShTot=          97 NBatch=          21 AvBLen=         4.6
 IPart= 20 NShTot=          97 NBatch=          21 AvBLen=         4.6
 IPart=  3 NShTot=         124 NBatch=          32 AvBLen=         3.9
 IPart=  7 NShTot=         116 NBatch=          27 AvBLen=         4.3
 IPart= 17 NShTot=          99 NBatch=          21 AvBLen=         4.7
 IPart= 24 NShTot=          96 NBatch=          20 AvBLen=         4.8
 IPart=  1 NShTot=         135 NBatch=          43 AvBLen=         3.1
 PrSmSu:  NxtVal=             33.
 Entering OneElI...
 Calculate potential energy integrals
    NBasis = 260  MinDer = 1  MaxDer = 1
 Requested accuracy = 0.1000D-12
 PrsmSu:  NPrtUS=  32 ThrOK=T IAlg=1 NPAlg=1 LenDen=           0.
 Prism:   IPart=     0 DynPar=F LinDyn=F Incr=           8.
 PRISM was handed    13045919 working-precision words and  3394 shell-pairs
 PRISM was handed    13045919 working-precision words and  3394 shell-pairs
 PRISM was handed    13045919 working-precision words and  3394 shell-pairs
 PRISM was handed    13045919 working-precision words and  3394 shell-pairs
 PRISM was handed    13045919 working-precision words and  3394 shell-pairs
 PRISM was handed    13045919 working-precision words and  3394 shell-pairs
 PRISM was handed    13045919 working-precision words and  3394 shell-pairs
 PRISM was handed    13045919 working-precision words and  3394 shell-pairs
 PRISM was handed    13045919 working-precision words and  3394 shell-pairs
 PRISM was handed    13045919 working-precision words and  3394 shell-pairs
 PRISM was handed    13045919 working-precision words and  3394 shell-pairs
 PRISM was handed    13045919 working-precision words and  3394 shell-pairs
 PRISM was handed    13045919 working-precision words and  3394 shell-pairs
 PRISM was handed    13045919 working-precision words and  3394 shell-pairs
 PRISM was handed    13045919 working-precision words and  3394 shell-pairs
 PRISM was handed    13045919 working-precision words and  3394 shell-pairs
 PRISM was handed    13045919 working-precision words and  3394 shell-pairs
 PRISM was handed    13045919 working-precision words and  3394 shell-pairs
 PRISM was handed    13045919 working-precision words and  3394 shell-pairs
 PRISM was handed    13045919 working-precision words and  3394 shell-pairs
 PRISM was handed    13045919 working-precision words and  3394 shell-pairs
 PRISM was handed    13045919 working-precision words and  3394 shell-pairs
 PRISM was handed    13045919 working-precision words and  3394 shell-pairs
 PRISM was handed    13045919 working-precision words and  3394 shell-pairs
 PRISM was handed    13045919 working-precision words and  3394 shell-pairs
 PRISM was handed    13045919 working-precision words and  3394 shell-pairs
 PRISM was handed    13045919 working-precision words and  3394 shell-pairs
 PRISM was handed    13045919 working-precision words and  3394 shell-pairs
 PRISM was handed    13045919 working-precision words and  3394 shell-pairs
 PRISM was handed    13045919 working-precision words and  3394 shell-pairs
 PRISM was handed    13045919 working-precision words and  3394 shell-pairs
 PRISM was handed    13045919 working-precision words and  3394 shell-pairs
 IPart= 17 NShTot=         800 NBatch=         100 AvBLen=         8.0
 IPart= 13 NShTot=         840 NBatch=         105 AvBLen=         8.0
 IPart= 28 NShTot=         760 NBatch=          95 AvBLen=         8.0
 IPart= 15 NShTot=         816 NBatch=         102 AvBLen=         8.0
 IPart= 24 NShTot=         768 NBatch=          96 AvBLen=         8.0
 IPart= 26 NShTot=         760 NBatch=          95 AvBLen=         8.0
 IPart=  7 NShTot=         928 NBatch=         116 AvBLen=         8.0
 IPart=  3 NShTot=         992 NBatch=         124 AvBLen=         8.0
 IPart= 31 NShTot=         760 NBatch=          95 AvBLen=         8.0
 IPart= 30 NShTot=         760 NBatch=          95 AvBLen=         8.0
 IPart= 22 NShTot=         776 NBatch=          97 AvBLen=         8.0
 IPart= 11 NShTot=         848 NBatch=         106 AvBLen=         8.0
 IPart=  1 NShTot=        1072 NBatch=         134 AvBLen=         8.0
 IPart=  9 NShTot=         880 NBatch=         110 AvBLen=         8.0
 IPart=  5 NShTot=         960 NBatch=         120 AvBLen=         8.0
 IPart= 20 NShTot=         784 NBatch=          98 AvBLen=         8.0
 IPart= 23 NShTot=         776 NBatch=          97 AvBLen=         8.0
 IPart= 16 NShTot=         800 NBatch=         100 AvBLen=         8.0
 IPart= 19 NShTot=         800 NBatch=         100 AvBLen=         8.0
 IPart= 18 NShTot=         800 NBatch=         100 AvBLen=         8.0
 IPart= 29 NShTot=         760 NBatch=          95 AvBLen=         8.0
 IPart=  0 NShTot=        1096 NBatch=         137 AvBLen=         8.0
 IPart= 14 NShTot=         824 NBatch=         103 AvBLen=         8.0
 IPart= 25 NShTot=         760 NBatch=          95 AvBLen=         8.0
 IPart= 27 NShTot=         760 NBatch=          95 AvBLen=         8.0
 IPart=  8 NShTot=         888 NBatch=         111 AvBLen=         8.0
 IPart= 12 NShTot=         840 NBatch=         105 AvBLen=         8.0
 IPart= 21 NShTot=         776 NBatch=          97 AvBLen=         8.0
 IPart= 10 NShTot=         864 NBatch=         108 AvBLen=         8.0
 IPart=  6 NShTot=         936 NBatch=         117 AvBLen=         8.0
 IPart=  2 NShTot=        1008 NBatch=         126 AvBLen=         8.0
 IPart=  4 NShTot=         960 NBatch=         120 AvBLen=         8.0
 PrSmSu:  NxtVal=            257.
 l701 out
 I=    0 X=   8.189798853382D-03 Y=  -9.524983484375D-03 Z=   1.641820890426D-02
 I=    1 X=   1.068494352764D+00 Y=   2.548437152422D+00 Z=   4.727018961713D-01
 I=    2 X=   9.026088970053D-02 Y=   1.799051653278D-01 Z=   3.150978413731D+00
 I=    3 X=   2.803280646784D+00 Y=   3.048809037633D-01 Z=  -1.479340049292D+00
 I=    4 X=  -2.577029202541D+00 Y=   3.298648749986D-01 Z=  -1.487590086440D+00
 I=    5 X=  -1.072316503740D+00 Y=  -2.540559917404D+00 Z=  -4.834914455485D-01
 I=    6 X=  -2.897896280074D+00 Y=  -2.906838084058D-01 Z=   1.294410076026D+00
 I=    7 X=   2.224965067652D+00 Y=  -1.898118540027D+00 Z=   1.180396209626D+00
 I=    8 X=   3.602410294536D-01 Y=   1.366274169324D+00 Z=  -2.648065014274D+00
 ICntrl=      2127.
 Calling FoFJK, ICntrl=      2127 FMM=F ISym2X=0 I1Cent= 0 IOpClX= 1 NMat=1 NMatS=1 NMatT=0.
 FoFJK:  IHMeth= 1 ICntrl=    2127 DoSepK=T KAlg= 0 I1Cent=   0 FoldK=F
 IRaf=         1 NMat=   1 IRICut=       1 DoRegI=T DoRafI=F ISym2E= 0.
 FoFCou: FMM=F IPFlag=           0 FMFlag=      100000 FMFlg1=         800
         NFxFlg=           0 DoJE=F BraDBF=F KetDBF=F FulRan=T
         wScrn=  0.000000 ICntrl=    2527 IOpCl=  0 I1Cent=           0 NGrid=           0
         NMat0=    1 NMatS0=      1 NMatT0=    0 NMatD0=    1 NMtDS0=    0 NMtDT0=    0
 Symmetry not used in FoFCou.
 FoFCou:  KetSym=F NOpSet=  1 NOpAb=1 NOp=  1.
 FoFCou:  CnvScl= 1.00D+00 Thresh= 1.00D-10 IAcrcy=      10.
 PrismS was handed   419077187 working-precision words and  3402 shell-pairs
 FoFCou: LinMIO=F DoNuc=F BraDBF=F KetDBF=F HaveP=T PDBF=F HaveZ=T HaveW=F
         NIJTC =      10 NIJTAt=       0 NIJTCD=       0 NIJTT =      10
         IJTBeg=       1 IJTEnd=      10 KLTBeg=       1 KLTEnd=      10
         IPTBeg=       1 IPTEnd=      10 IPTBCv=       1 IPTECv=      10
         IZTBeg=       1 IZTEnd=      10 IZTBCv=       1 IZTECv=      10
         IWTBeg=      11 IWTEnd=      10 IWTBCv=      11 IWTECv=      10
         INTBeg=       1 INTEnd=       0 IFTBCv=       1 IFTECv=      10
 NCel replicated for PrismC:     1
 CoulSu:  IncDef=  1024 NBBP=        5788503 NTPThr=   100 NPartT=   32 Incr=        1024 LDynOK=F.
 CoulSu:  NPrtUS=  32 ThrOK=T IAlg=1 NPAlg=1 LenDen=           0 LWGrdD=           0 DoCopy=F.
 Enter PrismC: JobTyp=21 DoJE=F Cont=F.
 PrismC:  IPart=     0 DynPar=T LinDyn=F Incr=        1024 UseFst=F UseS4=T IGathr=2.
 PrismC was handed    13042753 working-precision words and  3402 shell-pairs
 Enter PrismC: JobTyp=21 DoJE=F Cont=F.
 Enter PrismC: JobTyp=21 DoJE=F Cont=F.
 Enter PrismC: JobTyp=21 DoJE=F Cont=F.
 Enter PrismC: JobTyp=21 DoJE=F Cont=F.
 Enter PrismC: JobTyp=21 DoJE=F Cont=F.
 Enter PrismC: JobTyp=21 DoJE=F Cont=F.
 Enter PrismC: JobTyp=21 DoJE=F Cont=F.
 Enter PrismC: JobTyp=21 DoJE=F Cont=F.
 Enter PrismC: JobTyp=21 DoJE=F Cont=F.
 Enter PrismC: JobTyp=21 DoJE=F Cont=F.
 Enter PrismC: JobTyp=21 DoJE=F Cont=F.
 Enter PrismC: JobTyp=21 DoJE=F Cont=F.
 Enter PrismC: JobTyp=21 DoJE=F Cont=F.
 Enter PrismC: JobTyp=21 DoJE=F Cont=F.
 Enter PrismC: JobTyp=21 DoJE=F Cont=F.
 Enter PrismC: JobTyp=21 DoJE=F Cont=F.
 Enter PrismC: JobTyp=21 DoJE=F Cont=F.
 Enter PrismC: JobTyp=21 DoJE=F Cont=F.
 Enter PrismC: JobTyp=21 DoJE=F Cont=F.
 Enter PrismC: JobTyp=21 DoJE=F Cont=F.
 Enter PrismC: JobTyp=21 DoJE=F Cont=F.
 Enter PrismC: JobTyp=21 DoJE=F Cont=F.
 PrismC was handed    13042753 working-precision words and  3402 shell-pairs
 Enter PrismC: JobTyp=21 DoJE=F Cont=F.
 PrismC was handed    13042753 working-precision words and  3402 shell-pairs
 Enter PrismC: JobTyp=21 DoJE=F Cont=F.
 PrismC was handed    13042753 working-precision words and  3402 shell-pairs
 Enter PrismC: JobTyp=21 DoJE=F Cont=F.
 PrismC was handed    13042753 working-precision words and  3402 shell-pairs
 Enter PrismC: JobTyp=21 DoJE=F Cont=F.
 PrismC was handed    13042753 working-precision words and  3402 shell-pairs
 Enter PrismC: JobTyp=21 DoJE=F Cont=F.
 PrismC was handed    13042753 working-precision words and  3402 shell-pairs
 Enter PrismC: JobTyp=21 DoJE=F Cont=F.
 PrismC was handed    13042753 working-precision words and  3402 shell-pairs
 Enter PrismC: JobTyp=21 DoJE=F Cont=F.
 PrismC was handed    13042753 working-precision words and  3402 shell-pairs
 Enter PrismC: JobTyp=21 DoJE=F Cont=F.
 PrismC was handed    13042753 working-precision words and  3402 shell-pairs
 Enter PrismC: JobTyp=21 DoJE=F Cont=F.
 PrismC was handed    13042753 working-precision words and  3402 shell-pairs
 PrismC was handed    13042753 working-precision words and  3402 shell-pairs
 PrismC was handed    13042753 working-precision words and  3402 shell-pairs
 PrismC was handed    13042753 working-precision words and  3402 shell-pairs
 PrismC was handed    13042753 working-precision words and  3402 shell-pairs
 PrismC was handed    13042753 working-precision words and  3402 shell-pairs
 PrismC was handed    13042753 working-precision words and  3402 shell-pairs
 PrismC was handed    13042753 working-precision words and  3402 shell-pairs
 PrismC was handed    13042753 working-precision words and  3402 shell-pairs
 PrismC was handed    13042753 working-precision words and  3402 shell-pairs
 PrismC was handed    13042753 working-precision words and  3402 shell-pairs
 PrismC was handed    13042753 working-precision words and  3402 shell-pairs
 PrismC was handed    13042753 working-precision words and  3402 shell-pairs
 PrismC was handed    13042753 working-precision words and  3402 shell-pairs
 PrismC was handed    13042753 working-precision words and  3402 shell-pairs
 PrismC was handed    13042753 working-precision words and  3402 shell-pairs
 PrismC was handed    13042753 working-precision words and  3402 shell-pairs
 PrismC was handed    13042753 working-precision words and  3402 shell-pairs
 PrismC was handed    13042753 working-precision words and  3402 shell-pairs
 PrismC was handed    13042753 working-precision words and  3402 shell-pairs
 PrismC was handed    13042753 working-precision words and  3402 shell-pairs
 PrismC was handed    13042753 working-precision words and  3402 shell-pairs
 IPart=  2 NShTot=      181947 NShNF=      181947 NShFF=           0 NBatch=        1606 AvBLen=       113.3
 IPart= 17 NShTot=      176662 NShNF=      176662 NShFF=           0 NBatch=        1504 AvBLen=       117.5
 IPart= 27 NShTot=      185234 NShNF=      185234 NShFF=           0 NBatch=        1612 AvBLen=       114.9
 IPart= 11 NShTot=      169538 NShNF=      169538 NShFF=           0 NBatch=        1622 AvBLen=       104.5
 IPart= 28 NShTot=      171328 NShNF=      171328 NShFF=           0 NBatch=        1592 AvBLen=       107.6
 IPart= 31 NShTot=      179988 NShNF=      179988 NShFF=           0 NBatch=        1671 AvBLen=       107.7
 IPart= 21 NShTot=      159341 NShNF=      159341 NShFF=           0 NBatch=        1576 AvBLen=       101.1
 IPart=  3 NShTot=      173999 NShNF=      173999 NShFF=           0 NBatch=        1424 AvBLen=       122.2
 IPart= 29 NShTot=      177509 NShNF=      177509 NShFF=           0 NBatch=        1645 AvBLen=       107.9
 IPart= 23 NShTot=      162303 NShNF=      162303 NShFF=           0 NBatch=        1399 AvBLen=       116.0
 IPart= 25 NShTot=      167708 NShNF=      167708 NShFF=           0 NBatch=        1624 AvBLen=       103.3
 IPart= 15 NShTot=      173328 NShNF=      173328 NShFF=           0 NBatch=        1487 AvBLen=       116.6
 IPart= 20 NShTot=      178263 NShNF=      178263 NShFF=           0 NBatch=        1651 AvBLen=       108.0
 IPart=  7 NShTot=      162598 NShNF=      162598 NShFF=           0 NBatch=        1622 AvBLen=       100.2
 IPart= 26 NShTot=      192507 NShNF=      192507 NShFF=           0 NBatch=        1445 AvBLen=       133.2
 IPart= 22 NShTot=      193000 NShNF=      193000 NShFF=           0 NBatch=        1632 AvBLen=       118.3
 IPart=  8 NShTot=      169472 NShNF=      169472 NShFF=           0 NBatch=        1563 AvBLen=       108.4
 IPart= 18 NShTot=      178050 NShNF=      178050 NShFF=           0 NBatch=        1568 AvBLen=       113.6
 IPart=  4 NShTot=      178556 NShNF=      178556 NShFF=           0 NBatch=        1586 AvBLen=       112.6
 IPart= 10 NShTot=      155454 NShNF=      155454 NShFF=           0 NBatch=        1428 AvBLen=       108.9
 IPart=  0 NShTot=      164348 NShNF=      164348 NShFF=           0 NBatch=        1207 AvBLen=       136.2
 IPart=  6 NShTot=      177069 NShNF=      177069 NShFF=           0 NBatch=        1625 AvBLen=       109.0
 IPart=  1 NShTot=      180472 NShNF=      180472 NShFF=           0 NBatch=        1505 AvBLen=       119.9
 IPart=  5 NShTot=      181527 NShNF=      181527 NShFF=           0 NBatch=        1612 AvBLen=       112.6
 IPart=  9 NShTot=      175051 NShNF=      175051 NShFF=           0 NBatch=        1507 AvBLen=       116.2
 IPart= 19 NShTot=      170164 NShNF=      170164 NShFF=           0 NBatch=        1596 AvBLen=       106.6
 IPart= 16 NShTot=      170129 NShNF=      170129 NShFF=           0 NBatch=        1582 AvBLen=       107.5
 IPart= 24 NShTot=      181902 NShNF=      181902 NShFF=           0 NBatch=        1381 AvBLen=       131.7
 IPart= 13 NShTot=      153557 NShNF=      153557 NShFF=           0 NBatch=        1604 AvBLen=        95.7
 IPart= 30 NShTot=      182941 NShNF=      182941 NShFF=           0 NBatch=        1649 AvBLen=       110.9
 IPart= 12 NShTot=      154522 NShNF=      154522 NShFF=           0 NBatch=        1485 AvBLen=       104.1
 IPart= 14 NShTot=      170112 NShNF=      170112 NShFF=           0 NBatch=        1629 AvBLen=       104.4
 CoulSu:  NxtVal=        6336513.
 FoFCou: FMM=F IPFlag=           0 FMFlag=      100000 FMFlg1=         800
         NFxFlg=           0 DoJE=F BraDBF=F KetDBF=F FulRan=T
         wScrn=  0.000000 ICntrl=    2127 IOpCl=  1 I1Cent=           0 NGrid=           0
         NMat0=    1 NMatS0=      0 NMatT0=    1 NMatD0=    1 NMtDS0=    0 NMtDT0=    0
         CW=    0.222036    0.777964
         WU=    0.000000   12.500000
 Symmetry not used in FoFCou.
 FoFCou:  KetSym=F NOpSet=  1 NOpAb=1 NOp=  1.
 FoFCou:  CnvScl= 1.00D+00 Thresh= 1.00D-10 IAcrcy=      10.
 PrismS was handed   419073840 working-precision words and  3402 shell-pairs
 FoFCou: LinMIO=F DoNuc=F BraDBF=F KetDBF=F HaveP=T PDBF=F HaveZ=T HaveW=F
         NIJTC =      10 NIJTAt=       0 NIJTCD=       0 NIJTT =      10
         IJTBeg=       1 IJTEnd=      10 KLTBeg=       1 KLTEnd=      10
         IPTBeg=       1 IPTEnd=      10 IPTBCv=       1 IPTECv=      10
         IZTBeg=       1 IZTEnd=      10 IZTBCv=       1 IZTECv=      10
         IWTBeg=      11 IWTEnd=      10 IWTBCv=      11 IWTECv=      10
         INTBeg=       1 INTEnd=       0 IFTBCv=       1 IFTECv=      10
 NCel replicated for PrismC:     1
 CoulSu:  IncDef=  1024 NBBP=        5788503 NTPThr=   100 NPartT=   32 Incr=        1024 LDynOK=F.
 CoulSu:  NPrtUS=  32 ThrOK=T IAlg=1 NPAlg=1 LenDen=           0 LWGrdD=           0 DoCopy=F.
 Enter PrismC: JobTyp=21 DoJE=F Cont=F.
 Linear combination for Coulomb/exchange, wScrn=  0.000000
 CW=    0.222036    0.777964
 WU=    0.000000   12.500000
 PrismC:  IPart=     0 DynPar=T LinDyn=F Incr=        1024 UseFst=F UseS4=T IGathr=2.
 PrismC was handed    13042648 working-precision words and  3402 shell-pairs
 Enter PrismC: JobTyp=21 DoJE=F Cont=F.
 Enter PrismC: JobTyp=21 DoJE=F Cont=F.
 Enter PrismC: JobTyp=21 DoJE=F Cont=F.
 Enter PrismC: JobTyp=21 DoJE=F Cont=F.
 Linear combination for Coulomb/exchange, wScrn=  0.000000
 CW=    0.222036    0.777964
 WU=    0.000000   12.500000
 Enter PrismC: JobTyp=21 DoJE=F Cont=F.
 Linear combination for Coulomb/exchange, wScrn=  0.000000
 CW=    0.222036    0.777964
 WU=    0.000000   12.500000
 Enter PrismC: JobTyp=21 DoJE=F Cont=F.
 Linear combination for Coulomb/exchange, wScrn=  0.000000
 CW=    0.222036    0.777964
 WU=    0.000000   12.500000
 Enter PrismC: JobTyp=21 DoJE=F Cont=F.
 Linear combination for Coulomb/exchange, wScrn=  0.000000
 CW=    0.222036    0.777964
 WU=    0.000000   12.500000
 Linear combination for Coulomb/exchange, wScrn=  0.000000
 CW=    0.222036    0.777964
 WU=    0.000000   12.500000
 Enter PrismC: JobTyp=21 DoJE=F Cont=F.
 Linear combination for Coulomb/exchange, wScrn=  0.000000
 CW=    0.222036    0.777964
 WU=    0.000000   12.500000
 Enter PrismC: JobTyp=21 DoJE=F Cont=F.
 Linear combination for Coulomb/exchange, wScrn=  0.000000
 CW=    0.222036    0.777964
 WU=    0.000000   12.500000
 Enter PrismC: JobTyp=21 DoJE=F Cont=F.
 Linear combination for Coulomb/exchange, wScrn=  0.000000
 CW=    0.222036    0.777964
 WU=    0.000000   12.500000
 Enter PrismC: JobTyp=21 DoJE=F Cont=F.
 Linear combination for Coulomb/exchange, wScrn=  0.000000
 CW=    0.222036    0.777964
 WU=    0.000000   12.500000
 Enter PrismC: JobTyp=21 DoJE=F Cont=F.
 Linear combination for Coulomb/exchange, wScrn=  0.000000
 CW=    0.222036    0.777964
 WU=    0.000000   12.500000
 Enter PrismC: JobTyp=21 DoJE=F Cont=F.
 Linear combination for Coulomb/exchange, wScrn=  0.000000
 CW=    0.222036    0.777964
 WU=    0.000000   12.500000
 Enter PrismC: JobTyp=21 DoJE=F Cont=F.
 Linear combination for Coulomb/exchange, wScrn=  0.000000
 CW=    0.222036    0.777964
 WU=    0.000000   12.500000
 Enter PrismC: JobTyp=21 DoJE=F Cont=F.
 Linear combination for Coulomb/exchange, wScrn=  0.000000
 CW=    0.222036    0.777964
 WU=    0.000000   12.500000
 Enter PrismC: JobTyp=21 DoJE=F Cont=F.
 Linear combination for Coulomb/exchange, wScrn=  0.000000
 CW=    0.222036    0.777964
 WU=    0.000000   12.500000
 Enter PrismC: JobTyp=21 DoJE=F Cont=F.
 Linear combination for Coulomb/exchange, wScrn=  0.000000
 CW=    0.222036    0.777964
 WU=    0.000000   12.500000
 Linear combination for Coulomb/exchange, wScrn=  0.000000
 CW=    0.222036    0.777964
 WU=    0.000000   12.500000
 Enter PrismC: JobTyp=21 DoJE=F Cont=F.
 Linear combination for Coulomb/exchange, wScrn=  0.000000
 CW=    0.222036    0.777964
 WU=    0.000000   12.500000
 Enter PrismC: JobTyp=21 DoJE=F Cont=F.
 Linear combination for Coulomb/exchange, wScrn=  0.000000
 CW=    0.222036    0.777964
 WU=    0.000000   12.500000
 Enter PrismC: JobTyp=21 DoJE=F Cont=F.
 Linear combination for Coulomb/exchange, wScrn=  0.000000
 CW=    0.222036    0.777964
 WU=    0.000000   12.500000
 Enter PrismC: JobTyp=21 DoJE=F Cont=F.
 Linear combination for Coulomb/exchange, wScrn=  0.000000
 CW=    0.222036    0.777964
 WU=    0.000000   12.500000
 Enter PrismC: JobTyp=21 DoJE=F Cont=F.
 Linear combination for Coulomb/exchange, wScrn=  0.000000
 CW=    0.222036    0.777964
 WU=    0.000000   12.500000
 Enter PrismC: JobTyp=21 DoJE=F Cont=F.
 Linear combination for Coulomb/exchange, wScrn=  0.000000
 CW=    0.222036    0.777964
 WU=    0.000000   12.500000
 Linear combination for Coulomb/exchange, wScrn=  0.000000
 CW=    0.222036    0.777964
 WU=    0.000000   12.500000
 PrismC was handed    13042648 working-precision words and  3402 shell-pairs
 Enter PrismC: JobTyp=21 DoJE=F Cont=F.
 Linear combination for Coulomb/exchange, wScrn=  0.000000
 CW=    0.222036    0.777964
 WU=    0.000000   12.500000
 PrismC was handed    13042648 working-precision words and  3402 shell-pairs
 PrismC was handed    13042648 working-precision words and  3402 shell-pairs
 PrismC was handed    13042648 working-precision words and  3402 shell-pairs
 Enter PrismC: JobTyp=21 DoJE=F Cont=F.
 Linear combination for Coulomb/exchange, wScrn=  0.000000
 CW=    0.222036    0.777964
 WU=    0.000000   12.500000
 Enter PrismC: JobTyp=21 DoJE=F Cont=F.
 Linear combination for Coulomb/exchange, wScrn=  0.000000
 CW=    0.222036    0.777964
 WU=    0.000000   12.500000
 Enter PrismC: JobTyp=21 DoJE=F Cont=F.
 Linear combination for Coulomb/exchange, wScrn=  0.000000
 CW=    0.222036    0.777964
 WU=    0.000000   12.500000
 PrismC was handed    13042648 working-precision words and  3402 shell-pairs
 Enter PrismC: JobTyp=21 DoJE=F Cont=F.
 Linear combination for Coulomb/exchange, wScrn=  0.000000
 CW=    0.222036    0.777964
 WU=    0.000000   12.500000
 Enter PrismC: JobTyp=21 DoJE=F Cont=F.
 Linear combination for Coulomb/exchange, wScrn=  0.000000
 CW=    0.222036    0.777964
 WU=    0.000000   12.500000
 Enter PrismC: JobTyp=21 DoJE=F Cont=F.
 Linear combination for Coulomb/exchange, wScrn=  0.000000
 CW=    0.222036    0.777964
 WU=    0.000000   12.500000
 Enter PrismC: JobTyp=21 DoJE=F Cont=F.
 Linear combination for Coulomb/exchange, wScrn=  0.000000
 CW=    0.222036    0.777964
 WU=    0.000000   12.500000
 PrismC was handed    13042648 working-precision words and  3402 shell-pairs
 PrismC was handed    13042648 working-precision words and  3402 shell-pairs
 PrismC was handed    13042648 working-precision words and  3402 shell-pairs
 PrismC was handed    13042648 working-precision words and  3402 shell-pairs
 PrismC was handed    13042648 working-precision words and  3402 shell-pairs
 PrismC was handed    13042648 working-precision words and  3402 shell-pairs
 PrismC was handed    13042648 working-precision words and  3402 shell-pairs
 PrismC was handed    13042648 working-precision words and  3402 shell-pairs
 PrismC was handed    13042648 working-precision words and  3402 shell-pairs
 PrismC was handed    13042648 working-precision words and  3402 shell-pairs
 PrismC was handed    13042648 working-precision words and  3402 shell-pairs
 PrismC was handed    13042648 working-precision words and  3402 shell-pairs
 PrismC was handed    13042648 working-precision words and  3402 shell-pairs
 PrismC was handed    13042648 working-precision words and  3402 shell-pairs
 PrismC was handed    13042648 working-precision words and  3402 shell-pairs
 PrismC was handed    13042648 working-precision words and  3402 shell-pairs
 PrismC was handed    13042648 working-precision words and  3402 shell-pairs
 PrismC was handed    13042648 working-precision words and  3402 shell-pairs
 PrismC was handed    13042648 working-precision words and  3402 shell-pairs
 PrismC was handed    13042648 working-precision words and  3402 shell-pairs
 PrismC was handed    13042648 working-precision words and  3402 shell-pairs
 PrismC was handed    13042648 working-precision words and  3402 shell-pairs
 PrismC was handed    13042648 working-precision words and  3402 shell-pairs
 PrismC was handed    13042648 working-precision words and  3402 shell-pairs
 PrismC was handed    13042648 working-precision words and  3402 shell-pairs
 PrismC was handed    13042648 working-precision words and  3402 shell-pairs
 IPart= 12 NShTot=      177597 NShNF=      177597 NShFF=           0 NBatch=        1810 AvBLen=        98.1
 IPart= 16 NShTot=      178709 NShNF=      178709 NShFF=           0 NBatch=        1874 AvBLen=        95.4
 IPart= 30 NShTot=      176974 NShNF=      176974 NShFF=           0 NBatch=        2051 AvBLen=        86.3
 IPart= 27 NShTot=      175897 NShNF=      175897 NShFF=           0 NBatch=        1932 AvBLen=        91.0
 IPart= 18 NShTot=      174094 NShNF=      174094 NShFF=           0 NBatch=        1979 AvBLen=        88.0
 IPart= 25 NShTot=      157598 NShNF=      157598 NShFF=           0 NBatch=        1902 AvBLen=        82.9
 IPart= 23 NShTot=      176418 NShNF=      176418 NShFF=           0 NBatch=        1903 AvBLen=        92.7
 IPart=  0 NShTot=      173931 NShNF=      173931 NShFF=           0 NBatch=        1614 AvBLen=       107.8
 IPart= 22 NShTot=      177840 NShNF=      177840 NShFF=           0 NBatch=        1921 AvBLen=        92.6
 IPart= 14 NShTot=      160021 NShNF=      160021 NShFF=           0 NBatch=        1870 AvBLen=        85.6
 IPart= 15 NShTot=      163249 NShNF=      163249 NShFF=           0 NBatch=        1846 AvBLen=        88.4
 IPart=  6 NShTot=      168925 NShNF=      168925 NShFF=           0 NBatch=        1937 AvBLen=        87.2
 IPart= 31 NShTot=      166608 NShNF=      166608 NShFF=           0 NBatch=        1408 AvBLen=       118.3
 IPart=  2 NShTot=      177688 NShNF=      177688 NShFF=           0 NBatch=        1933 AvBLen=        91.9
 IPart=  3 NShTot=      196025 NShNF=      196025 NShFF=           0 NBatch=        2094 AvBLen=        93.6
 IPart= 28 NShTot=      160600 NShNF=      160600 NShFF=           0 NBatch=        1856 AvBLen=        86.5
 IPart=  1 NShTot=      195261 NShNF=      195261 NShFF=           0 NBatch=        1897 AvBLen=       102.9
 IPart= 19 NShTot=      175328 NShNF=      175328 NShFF=           0 NBatch=        1924 AvBLen=        91.1
 IPart= 21 NShTot=      171683 NShNF=      171683 NShFF=           0 NBatch=        1893 AvBLen=        90.7
 IPart= 29 NShTot=      172707 NShNF=      172707 NShFF=           0 NBatch=        1904 AvBLen=        90.7
 IPart=  5 NShTot=      181815 NShNF=      181815 NShFF=           0 NBatch=        2116 AvBLen=        85.9
 IPart=  7 NShTot=      181268 NShNF=      181268 NShFF=           0 NBatch=        1966 AvBLen=        92.2
 IPart= 20 NShTot=      160701 NShNF=      160701 NShFF=           0 NBatch=        1998 AvBLen=        80.4
 IPart=  8 NShTot=      190450 NShNF=      190450 NShFF=           0 NBatch=        1922 AvBLen=        99.1
 IPart= 13 NShTot=      178165 NShNF=      178165 NShFF=           0 NBatch=        1995 AvBLen=        89.3
 IPart= 24 NShTot=      179444 NShNF=      179444 NShFF=           0 NBatch=        2078 AvBLen=        86.4
 IPart=  9 NShTot=      186449 NShNF=      186449 NShFF=           0 NBatch=        1983 AvBLen=        94.0
 IPart= 26 NShTot=      188646 NShNF=      188646 NShFF=           0 NBatch=        1915 AvBLen=        98.5
 IPart= 11 NShTot=      172265 NShNF=      172265 NShFF=           0 NBatch=        1751 AvBLen=        98.4
 IPart= 10 NShTot=      173994 NShNF=      173994 NShFF=           0 NBatch=        1942 AvBLen=        89.6
 IPart= 17 NShTot=      106288 NShNF=      106288 NShFF=           0 NBatch=        1642 AvBLen=        64.7
 IPart=  4 NShTot=      178327 NShNF=      178327 NShFF=           0 NBatch=        1936 AvBLen=        92.1
 CoulSu:  NxtVal=        6336513.
 ReadGW:  IGet=0 IStart=           1 Next=           1 LGW=           0.
 Remaining memory in FofDFT      399.87 Mw
 CkSvGd:  ISavGI=        -1 IRadAn=       5 IRASav=       5 ISavGd=        -1.
 CalDSu:  NPrtUS=  32 ThrOK=T IAlg=1 NPAlg=2 DoDPD=T LenP=       33930 LenD1P=             0.
 IPart=  0 IRanGd=          0 ScrnBf=T ScrnGd=T RCrit=4.00D+00 DoMicB=T.
 IPart= 18         5205 of         5922 points in       8 batches and       39 microbatches, Max-NSigAt=       8 Max-NSgAt2=       8
 IPart=  6         6404 of         8076 points in      11 batches and       55 microbatches, Max-NSigAt=       8 Max-NSgAt2=       8
 IPart=  5         5950 of         6914 points in       8 batches and       22 microbatches, Max-NSigAt=       8 Max-NSgAt2=       8
 IPart=  8         5063 of         6064 points in       9 batches and       46 microbatches, Max-NSigAt=       8 Max-NSgAt2=       8
 IPart= 19         5388 of         6092 points in       7 batches and       33 microbatches, Max-NSigAt=       8 Max-NSgAt2=       8
 IPart= 25         4914 of         5118 points in       5 batches and       12 microbatches, Max-NSigAt=       8 Max-NSgAt2=       8
 IPart=  3         4456 of         4776 points in       5 batches and       26 microbatches, Max-NSigAt=       8 Max-NSgAt2=       8
 IPart= 10         5279 of         6184 points in       8 batches and       56 microbatches, Max-NSigAt=       8 Max-NSgAt2=       8
 IPart= 16         5230 of         5638 points in       6 batches and       34 microbatches, Max-NSigAt=       8 Max-NSgAt2=       8
 IPart= 26         6002 of         7300 points in      10 batches and       32 microbatches, Max-NSigAt=       8 Max-NSgAt2=       8
 IPart= 31         4613 of         4748 points in       4 batches and       15 microbatches, Max-NSigAt=       8 Max-NSgAt2=       8
 IPart= 28         5009 of         5420 points in       6 batches and       15 microbatches, Max-NSigAt=       8 Max-NSgAt2=       8
 IPart= 11         5751 of         6756 points in       8 batches and       30 microbatches, Max-NSigAt=       8 Max-NSgAt2=       8
 IPart= 17         5306 of         6064 points in       7 batches and       26 microbatches, Max-NSigAt=       8 Max-NSgAt2=       8
 IPart= 20         4662 of         4704 points in       4 batches and       14 microbatches, Max-NSigAt=       8 Max-NSgAt2=       8
 IPart= 30         4614 of         4920 points in       5 batches and       29 microbatches, Max-NSigAt=       8 Max-NSgAt2=       8
 IPart= 15         5042 of         5524 points in       6 batches and       28 microbatches, Max-NSigAt=       8 Max-NSgAt2=       8
 IPart=  1         5180 of         5694 points in       6 batches and       25 microbatches, Max-NSigAt=       8 Max-NSgAt2=       8
 IPart= 13         4968 of         5392 points in       6 batches and       30 microbatches, Max-NSigAt=       8 Max-NSgAt2=       8
 IPart=  9         5219 of         5694 points in       6 batches and       26 microbatches, Max-NSigAt=       8 Max-NSgAt2=       8
 IPart= 12         4348 of         4748 points in       5 batches and       17 microbatches, Max-NSigAt=       8 Max-NSgAt2=       8
 IPart=  7         5490 of         6156 points in       7 batches and       62 microbatches, Max-NSigAt=       8 Max-NSgAt2=       8
 IPart= 14         5573 of         5894 points in       6 batches and       33 microbatches, Max-NSigAt=       8 Max-NSgAt2=       8
 IPart= 29         5022 of         5310 points in       5 batches and       21 microbatches, Max-NSigAt=       8 Max-NSgAt2=       8
 IPart= 23         5477 of         5984 points in       6 batches and       25 microbatches, Max-NSigAt=       8 Max-NSgAt2=       8
 IPart=  0         5090 of         5348 points in       5 batches and       23 microbatches, Max-NSigAt=       8 Max-NSgAt2=       8
 IPart=  2         5112 of         5956 points in       7 batches and       39 microbatches, Max-NSigAt=       8 Max-NSgAt2=       8
 IPart= 22         5560 of         5980 points in       6 batches and       40 microbatches, Max-NSigAt=       8 Max-NSgAt2=       8
 IPart= 21         5161 of         5956 points in       7 batches and       58 microbatches, Max-NSigAt=       8 Max-NSgAt2=       8
 IPart= 27         5177 of         5496 points in       5 batches and       20 microbatches, Max-NSigAt=       8 Max-NSgAt2=       8
 IPart= 24         5439 of         6032 points in       7 batches and       50 microbatches, Max-NSigAt=       8 Max-NSgAt2=       8
 IPart=  4         5174 of         5352 points in       5 batches and       22 microbatches, Max-NSigAt=       8 Max-NSgAt2=       8
 Forces at end of L703
 I=    0 X=   8.189798853382D-03 Y=  -9.524983484375D-03 Z=   1.641820890426D-02
 I=    1 X=   1.727284350184D-02 Y=   4.298392199632D-02 Z=   5.042496646273D-04
 I=    2 X=   3.306392068172D-04 Y=  -5.164729508598D-03 Z=   4.983715143578D-04
 I=    3 X=   3.270690300736D-04 Y=  -1.687365236123D-03 Z=   3.220160178419D-04
 I=    4 X=  -2.284239074543D-03 Y=  -2.366960820226D-02 Z=  -4.116120320112D-03
 I=    5 X=  -2.296472109442D-02 Y=  -3.837558071695D-02 Z=  -1.195478120132D-02
 I=    6 X=   4.203075328668D-04 Y=   6.912793410513D-04 Z=   1.074753644877D-03
 I=    7 X=   1.817166078087D-03 Y=   4.089926635966D-03 Z=   3.718582851378D-03
 I=    8 X=   5.080934819265D-03 Y=   2.113215569060D-02 Z=   9.952927828353D-03
 FrcOut:
 IF    =    45 IFX   =    69 IFXYZ =    93
 IFFX  =   117 IFFFX =   417 IFLen =    24
 IFFLen=   300 IFFFLn=     0 IEDerv=   417
 LEDerv=  1205 IFroze=  1904 ICStrt=108261
 FCEst1:  Generated internal coordinate force constants:
                1             2             3             4             5 
      1  0.747250D+00
      2  0.268295D-01  0.242801D+00
      3 -0.519390D-02  0.164332D-01  0.753576D+00
      4 -0.122773D+00 -0.126121D-01  0.575757D-02  0.832803D-01
      5 -0.126555D-01 -0.702515D-01  0.162175D-01  0.116786D-01  0.452957D-01
      6  0.000000D+00  0.000000D+00 -0.362127D+00  0.000000D+00  0.000000D+00
      7 -0.299755D+00 -0.647869D-02  0.102044D+00  0.193131D-01 -0.541619D-04
      8  0.751549D-02 -0.695344D-01 -0.193312D-01 -0.108415D-03  0.109086D-01
      9  0.108152D+00 -0.112341D-01 -0.185183D+00  0.334889D-01 -0.939168D-04
     10 -0.300801D+00 -0.566858D-03 -0.105680D+00  0.193779D-01  0.425304D-04
     11 -0.144762D-01 -0.643493D-01 -0.885359D-02  0.563727D-04  0.108401D-01
     12 -0.106046D+00 -0.749498D-03 -0.179187D+00 -0.335356D-01 -0.136599D-03
     13 -0.285284D-01 -0.556274D-02  0.322723D-02  0.738905D-03  0.101100D-02
     14 -0.560740D-02 -0.390009D-01 -0.553198D-02  0.100653D-02  0.319971D-02
     15  0.325142D-02 -0.551292D-02 -0.225675D-01 -0.570402D-02 -0.159894D-01
     16 -0.209942D-02  0.454560D-03  0.132194D-02 -0.223891D-03  0.798677D-04
     17 -0.139541D-01  0.321207D-02  0.792969D-02  0.182702D-03 -0.651744D-04
     18 -0.429592D-02  0.929718D-03  0.270690D-02 -0.461824D-03  0.164744D-03
     19  0.675942D-02 -0.316291D-02  0.337564D-02 -0.258283D-03  0.921360D-04
     20  0.118308D-01 -0.560845D-02  0.623395D-02 -0.139755D-04  0.498541D-05
     21  0.379990D-02 -0.188099D-02  0.235988D-02  0.476542D-03 -0.169994D-03
     22 -0.523748D-04  0.109927D-02 -0.485287D-02  0.545090D-03 -0.194447D-03
     23  0.517392D-03  0.273187D-02 -0.130976D-01 -0.189650D-03  0.676530D-04
     24  0.331929D-03  0.201455D-02 -0.957904D-02 -0.215433D-04  0.768504D-05
                6             7             8             9            10 
      6  0.362127D+00
      7  0.000000D+00  0.292604D+00
      8  0.000000D+00  0.601307D-02  0.449930D-01
      9  0.000000D+00 -0.120552D+00  0.104267D-01  0.153089D+00
     10  0.000000D+00 -0.968093D-02 -0.943666D-04 -0.167867D-01  0.291363D+00
     11  0.000000D+00  0.254135D-04  0.108397D-01  0.440671D-04  0.527699D-03
     12  0.000000D+00  0.167536D-01  0.100317D-03  0.290508D-01  0.122460D+00
     13  0.000000D+00 -0.244995D-02 -0.133489D-01 -0.424821D-02 -0.223423D-03
     14  0.000000D+00  0.484011D-03  0.280090D-02  0.839276D-03  0.791833D-04
     15  0.000000D+00  0.175123D-02  0.880671D-02  0.303664D-02  0.232366D-05
     16  0.000000D+00  0.110822D-03 -0.823227D-04  0.192166D-03  0.126391D-03
     17  0.000000D+00 -0.904343D-04  0.671777D-04 -0.156813D-03 -0.103138D-03
     18  0.000000D+00  0.228595D-03 -0.169808D-03  0.396383D-03  0.260707D-03
     19  0.000000D+00  0.127846D-03 -0.949681D-04  0.221684D-03  0.145805D-03
     20  0.000000D+00  0.691763D-05 -0.513866D-05  0.119952D-04  0.788941D-05
     21  0.000000D+00 -0.235880D-03  0.175220D-03 -0.409016D-03 -0.269016D-03
     22  0.000000D+00 -0.269810D-03  0.200424D-03 -0.467851D-03 -0.307712D-03
     23  0.000000D+00  0.938736D-04 -0.697326D-04  0.162777D-03  0.107061D-03
     24  0.000000D+00  0.106636D-04 -0.792127D-05  0.184906D-04  0.121616D-04
               11            12            13            14            15 
     11  0.493764D-01
     12  0.904280D-03  0.150193D+00
     13  0.138677D-01  0.306065D-03  0.719987D+00
     14 -0.670720D-02 -0.980562D-04 -0.102382D+00  0.468596D+00
     15  0.790513D-02 -0.499611D-04 -0.836906D-01 -0.230204D+00  0.555161D+00
     16  0.362280D-05 -0.218752D-03 -0.307976D+00  0.124966D-01  0.106045D+00
     17 -0.295631D-05  0.178508D-03  0.269182D-01 -0.103316D+00  0.182076D-01
     18  0.747279D-05 -0.451223D-03  0.111541D+00  0.251831D-01 -0.143617D+00
     19  0.417929D-05 -0.252354D-03 -0.260823D+00  0.106051D+00 -0.650603D-01
     20  0.000000D+00 -0.136547D-04  0.910601D-01 -0.161074D+00  0.734912D-01
     21 -0.771095D-05  0.465603D-03 -0.654553D-01  0.815251D-01 -0.132792D+00
     22 -0.882013D-05  0.532577D-03 -0.120726D+00 -0.121275D-01  0.434047D-01
     23  0.306874D-05 -0.185297D-03 -0.115631D-01 -0.164499D+00  0.143296D+00
     24  0.000000D+00 -0.210488D-04  0.383198D-01  0.128287D+00 -0.259171D+00
               16            17            18            19            20 
     16  0.303942D+00
     17 -0.937163D-02  0.716763D-01
     18 -0.119894D+00 -0.186729D-01  0.115078D+00
     19 -0.714407D-02  0.172110D-01 -0.147613D-01  0.237985D+00
     20 -0.176121D-02  0.141924D-01 -0.366102D-02 -0.114922D+00  0.149812D+00
     21  0.112302D-01 -0.129345D-01  0.231730D-01  0.754797D-01 -0.804576D-01
     22  0.132643D-01 -0.207926D-01  0.273824D-01  0.232069D-01  0.137919D-01
     23 -0.181952D-02  0.142357D-01 -0.378131D-02 -0.517772D-02  0.267740D-02
     24  0.132304D-02  0.544845D-02  0.271464D-02  0.996881D-03  0.439514D-02
               21            22            23            24 
     21  0.102881D+00
     22 -0.250261D-01  0.843392D-01
     23  0.137505D-01  0.180317D-01  0.144853D+00
     24  0.432179D-02 -0.409729D-01 -0.140145D+00  0.261716D+00
 Quadrupole    = 9.43528418D-01-1.32668657D+00 3.83158152D-01
                -1.68114515D-01-2.89945012D-01-6.93827898D-01
 -------------------------------------------------------------------
 Center     Atomic                   Forces (Hartrees/Bohr)
 Number     Number              X              Y              Z
 -------------------------------------------------------------------
      1        6          -0.017272844   -0.042983922   -0.000504250
      2        1          -0.000330639    0.005164730   -0.000498372
      3        1          -0.000327069    0.001687365   -0.000322016
      4        1           0.002284239    0.023669608    0.004116120
      5        6           0.022964721    0.038375581    0.011954781
      6        1          -0.000420308   -0.000691279   -0.001074754
      7        1          -0.001817166   -0.004089927   -0.003718583
      8        1          -0.005080935   -0.021132156   -0.009952928
 -------------------------------------------------------------------
 Cartesian Forces:  Max     0.042983922 RMS     0.015150379
 From PutF, contents of force:
   1   -0.3116450048D-01
   2    0.1827346740D-02
   3   -0.2721986181D-01
   4   -0.3876489297D-01
   5   -0.1264114847D-01
   6    0.4174323084D-01
   7   -0.9170214969D-04
   8   -0.5430336286D-03
   9   -0.4102459517D-02
  10    0.6202087522D-03
  11    0.4345322440D-02
  12   -0.4137573184D-01
  13   -0.4851960336D-02
  14    0.9012872669D-03
  15   -0.4105952724D-02
  16   -0.1224574949D-03
  17   -0.4983715144D-03
  18   -0.1605987378D-01
 -----------------------------------------------------------------------------------------------
                       Internal Coordinate Forces (Hartree/Bohr or radian)
  Cent   Atom   N1       Length/X         N2         Alpha/Y        N3         Beta/Z          J
 -----------------------------------------------------------------------------------------------
      1  C 
      2  H        1  -0.000498(     1)
      3  H        1  -0.000122(     2)      2   0.000901(     8)
      4  H        1  -0.004106(     3)      2  -0.004852(     9)      3   0.041743(    14)     0
      5  C        1  -0.016060(     4)      2  -0.012641(    10)      3  -0.038765(    15)     0
      6  H        5  -0.000092(     5)      1  -0.027220(    11)      2   0.001827(    16)     0
      7  H        5  -0.000543(     6)      6   0.000620(    12)      1  -0.031165(    17)     0
      8  H        5  -0.004102(     7)      6   0.004345(    13)      7  -0.041376(    18)     0
 -----------------------------------------------------------------------------------------------
 Internal  Forces:  Max     0.041743231 RMS     0.019955848
 Force constants in Cartesian coordinates: 
                1             2             3             4             5 
      1  0.747250D+00
      2  0.268295D-01  0.242801D+00
      3 -0.519390D-02  0.164332D-01  0.753576D+00
      4 -0.122773D+00 -0.126121D-01  0.575757D-02  0.832803D-01
      5 -0.126555D-01 -0.702515D-01  0.162175D-01  0.116786D-01  0.452957D-01
      6  0.000000D+00  0.000000D+00 -0.362127D+00  0.000000D+00  0.000000D+00
      7 -0.299755D+00 -0.647869D-02  0.102044D+00  0.193131D-01 -0.541619D-04
      8  0.751549D-02 -0.695344D-01 -0.193312D-01 -0.108415D-03  0.109086D-01
      9  0.108152D+00 -0.112341D-01 -0.185183D+00  0.334889D-01 -0.939168D-04
     10 -0.300801D+00 -0.566858D-03 -0.105680D+00  0.193779D-01  0.425304D-04
     11 -0.144762D-01 -0.643493D-01 -0.885359D-02  0.563727D-04  0.108401D-01
     12 -0.106046D+00 -0.749498D-03 -0.179187D+00 -0.335356D-01 -0.136599D-03
     13 -0.285284D-01 -0.556274D-02  0.322723D-02  0.738905D-03  0.101100D-02
     14 -0.560740D-02 -0.390009D-01 -0.553198D-02  0.100653D-02  0.319971D-02
     15  0.325142D-02 -0.551292D-02 -0.225675D-01 -0.570402D-02 -0.159894D-01
     16 -0.209942D-02  0.454560D-03  0.132194D-02 -0.223891D-03  0.798677D-04
     17 -0.139541D-01  0.321207D-02  0.792969D-02  0.182702D-03 -0.651744D-04
     18 -0.429592D-02  0.929718D-03  0.270690D-02 -0.461824D-03  0.164744D-03
     19  0.675942D-02 -0.316291D-02  0.337564D-02 -0.258283D-03  0.921360D-04
     20  0.118308D-01 -0.560845D-02  0.623395D-02 -0.139755D-04  0.498541D-05
     21  0.379990D-02 -0.188099D-02  0.235988D-02  0.476542D-03 -0.169994D-03
     22 -0.523748D-04  0.109927D-02 -0.485287D-02  0.545090D-03 -0.194447D-03
     23  0.517392D-03  0.273187D-02 -0.130976D-01 -0.189650D-03  0.676530D-04
     24  0.331929D-03  0.201455D-02 -0.957904D-02 -0.215433D-04  0.768504D-05
                6             7             8             9            10 
      6  0.362127D+00
      7  0.000000D+00  0.292604D+00
      8  0.000000D+00  0.601307D-02  0.449930D-01
      9  0.000000D+00 -0.120552D+00  0.104267D-01  0.153089D+00
     10  0.000000D+00 -0.968093D-02 -0.943666D-04 -0.167867D-01  0.291363D+00
     11  0.000000D+00  0.254135D-04  0.108397D-01  0.440671D-04  0.527699D-03
     12  0.000000D+00  0.167536D-01  0.100317D-03  0.290508D-01  0.122460D+00
     13  0.000000D+00 -0.244995D-02 -0.133489D-01 -0.424821D-02 -0.223423D-03
     14  0.000000D+00  0.484011D-03  0.280090D-02  0.839276D-03  0.791833D-04
     15  0.000000D+00  0.175123D-02  0.880671D-02  0.303664D-02  0.232366D-05
     16  0.000000D+00  0.110822D-03 -0.823227D-04  0.192166D-03  0.126391D-03
     17  0.000000D+00 -0.904343D-04  0.671777D-04 -0.156813D-03 -0.103138D-03
     18  0.000000D+00  0.228595D-03 -0.169808D-03  0.396383D-03  0.260707D-03
     19  0.000000D+00  0.127846D-03 -0.949681D-04  0.221684D-03  0.145805D-03
     20  0.000000D+00  0.691763D-05 -0.513866D-05  0.119952D-04  0.788941D-05
     21  0.000000D+00 -0.235880D-03  0.175220D-03 -0.409016D-03 -0.269016D-03
     22  0.000000D+00 -0.269810D-03  0.200424D-03 -0.467851D-03 -0.307712D-03
     23  0.000000D+00  0.938736D-04 -0.697326D-04  0.162777D-03  0.107061D-03
     24  0.000000D+00  0.106636D-04 -0.792127D-05  0.184906D-04  0.121616D-04
               11            12            13            14            15 
     11  0.493764D-01
     12  0.904280D-03  0.150193D+00
     13  0.138677D-01  0.306065D-03  0.719987D+00
     14 -0.670720D-02 -0.980562D-04 -0.102382D+00  0.468596D+00
     15  0.790513D-02 -0.499611D-04 -0.836906D-01 -0.230204D+00  0.555161D+00
     16  0.362280D-05 -0.218752D-03 -0.307976D+00  0.124966D-01  0.106045D+00
     17 -0.295631D-05  0.178508D-03  0.269182D-01 -0.103316D+00  0.182076D-01
     18  0.747279D-05 -0.451223D-03  0.111541D+00  0.251831D-01 -0.143617D+00
     19  0.417929D-05 -0.252354D-03 -0.260823D+00  0.106051D+00 -0.650603D-01
     20  0.000000D+00 -0.136547D-04  0.910601D-01 -0.161074D+00  0.734912D-01
     21 -0.771095D-05  0.465603D-03 -0.654553D-01  0.815251D-01 -0.132792D+00
     22 -0.882013D-05  0.532577D-03 -0.120726D+00 -0.121275D-01  0.434047D-01
     23  0.306874D-05 -0.185297D-03 -0.115631D-01 -0.164499D+00  0.143296D+00
     24  0.000000D+00 -0.210488D-04  0.383198D-01  0.128287D+00 -0.259171D+00
               16            17            18            19            20 
     16  0.303942D+00
     17 -0.937163D-02  0.716763D-01
[...]
      3      3  H        1   1.078200(     2)      2  119.972(     8)
      4      4  H        1   1.078200(     3)      2  120.021(     9)      3  179.808(    14)      0
      5      5  C        1   2.400000(     4)      2   89.930(    10)      3   89.923(    15)      0
      6      6  H        5   1.078200(     5)      1   90.023(    11)      2   59.918(    16)      0
      7      7  H        5   1.078200(     6)      6  119.972(    12)      1   90.110(    17)      0
      8      8  H        5   1.078200(     7)      6  120.021(    13)      7  179.808(    18)      0
 ---------------------------------------------------------------------------------------------------
                         Z-Matrix orientation:                         
 ---------------------------------------------------------------------
 Center     Atomic      Atomic             Coordinates (Angstroms)
 Number     Number       Type             X           Y           Z
 ---------------------------------------------------------------------
      1          6           0        0.000000    0.000000    0.000000
      2          1           0        0.000000    0.000000    1.078200
      3          1           0        0.934011    0.000000   -0.538645
      4          1           0       -0.933548   -0.003135   -0.539437
      5          6           0        0.003210   -2.399996    0.002932
      6          1           0       -0.929766   -2.401024    0.543367
      7          1           0        0.937467   -2.399659    0.541151
      8          1           0        0.002062   -2.402440   -1.075264
 ---------------------------------------------------------------------
                    Distance matrix (angstroms):
                    1          2          3          4          5
     1  C    0.000000
     2  H    1.078200   0.000000
     3  H    1.078200   1.867235   0.000000
     4  H    1.078200   1.867692   1.867562   0.000000
     5  C    2.400000   2.629865   2.630528   2.629948   0.000000
     6  H    2.631469   2.629720   3.226349   2.631036   1.078200
     7  H    2.632500   2.631660   2.631414   3.226717   1.078200
     8  H    2.632093   3.226318   2.632148   2.630426   1.078200
                    6          7          8
     6  H    0.000000
     7  H    1.867235   0.000000
     8  H    1.867692   1.867562   0.000000
 Symmetry turned off by external request.
 Stoichiometry    C2H6
 Framework group  C1[X(C2H6)]
 Deg. of freedom    18
 Full point group                 C1      NOp   1
 Rotational constants (GHZ):     71.8923397     10.8028671     10.8026297

 **********************************************************************

            Population analysis using the SCF density.

 **********************************************************************

 Alpha  occ. eigenvalues --  -10.29942 -10.29440  -0.78970  -0.73809  -0.51473
 Alpha  occ. eigenvalues --   -0.51469  -0.48501  -0.48496  -0.30107
 Alpha virt. eigenvalues --    0.01986   0.03283   0.04599   0.04599   0.06021
 Alpha virt. eigenvalues --    0.07034   0.07034   0.10506   0.11742   0.11743
 Alpha virt. eigenvalues --    0.13034   0.14176   0.14176   0.14534   0.16744
 Alpha virt. eigenvalues --    0.19476   0.19477   0.23254   0.23256   0.25052
 Alpha virt. eigenvalues --    0.25053   0.28219   0.29140   0.30722   0.30723
 Alpha virt. eigenvalues --    0.31697   0.34882   0.35383   0.35383   0.36079
 Alpha virt. eigenvalues --    0.38232   0.38233   0.38488   0.39224   0.39518
 Alpha virt. eigenvalues --    0.40302   0.40303   0.41106   0.41108   0.42336
 Alpha virt. eigenvalues --    0.42339   0.42546   0.45632   0.45635   0.47602
 Alpha virt. eigenvalues --    0.47604   0.49447   0.50853   0.50854   0.60916
 Alpha virt. eigenvalues --    0.66986   0.70604   0.70896   0.70897   0.71921
 Alpha virt. eigenvalues --    0.71925   0.77498   0.77502   0.77510   0.80197
 Alpha virt. eigenvalues --    0.80202   0.80928   0.83916   0.83952   0.83958
 Alpha virt. eigenvalues --    0.84233   0.84238   0.84351   0.86128   0.89766
 Alpha virt. eigenvalues --    0.89766   0.92485   0.96632   0.96634   0.98077
 Alpha virt. eigenvalues --    1.00828   1.04598   1.04601   1.05861   1.05862
 Alpha virt. eigenvalues --    1.08560   1.08561   1.09595   1.10804   1.16362
 Alpha virt. eigenvalues --    1.16373   1.16635   1.16650   1.17230   1.17232
 Alpha virt. eigenvalues --    1.18248   1.25425   1.29004   1.29007   1.30114
 Alpha virt. eigenvalues --    1.30119   1.42235   1.43076   1.43083   1.44289
 Alpha virt. eigenvalues --    1.51028   1.51227   1.52169   1.52177   1.52718
 Alpha virt. eigenvalues --    1.52721   1.52774   1.54833   1.56336   1.56346
 Alpha virt. eigenvalues --    1.57153   1.57158   1.59980   1.62820   1.69984
 Alpha virt. eigenvalues --    1.69988   1.73572   1.81711   1.81718   1.82209
 Alpha virt. eigenvalues --    1.82214   1.83855   1.90565   1.94359   1.97736
 Alpha virt. eigenvalues --    1.97739   2.05483   2.05490   2.12079   2.12088
 Alpha virt. eigenvalues --    2.12104   2.12798   2.12802   2.20517   2.38648
 Alpha virt. eigenvalues --    2.86332   2.87866   2.87876   2.98192   3.01916
 Alpha virt. eigenvalues --    3.01920   3.05533   3.05549   3.06582   3.07440
 Alpha virt. eigenvalues --    3.29326   3.29334   3.33910   3.36208   3.36216
 Alpha virt. eigenvalues --    3.40376   3.40382   3.43135   3.43998   3.44175
 Alpha virt. eigenvalues --    3.50779   3.50783   3.57410   3.57412   3.60341
 Alpha virt. eigenvalues --    3.60350   3.71893   3.74237   3.74239   3.77227
 Alpha virt. eigenvalues --    3.78119   3.78121   3.82106   3.82111   3.83349
 Alpha virt. eigenvalues --    3.86387   3.87173   4.04237   4.04242   4.12627
 Alpha virt. eigenvalues --    4.18684   4.18697   4.20319   4.20330   4.21909
 Alpha virt. eigenvalues --    4.21923   4.21933   4.30463   4.58506   4.61223
 Alpha virt. eigenvalues --    4.61227   4.63589   4.63592   4.66804   4.66811
 Alpha virt. eigenvalues --    4.72214   4.72227   4.75273   4.80135   4.88474
 Alpha virt. eigenvalues --    4.89996   4.92882   5.06020   5.06048   5.07510
 Alpha virt. eigenvalues --    5.07534   5.13650   5.13659   5.16916   5.16918
 Alpha virt. eigenvalues --    5.28794   5.28819   5.29154   5.29174   5.36093
 Alpha virt. eigenvalues --    5.48362   6.10874   6.15890   6.27903   6.27929
 Alpha virt. eigenvalues --    6.28470   6.28493   6.39722   6.47974  16.10325
 Alpha virt. eigenvalues --   16.79194
  Beta  occ. eigenvalues --  -10.29939 -10.29443  -0.78968  -0.73810  -0.51472
  Beta  occ. eigenvalues --   -0.51468  -0.48501  -0.48497  -0.30107
  Beta virt. eigenvalues --    0.01986   0.03283   0.04599   0.04599   0.06021
  Beta virt. eigenvalues --    0.07034   0.07034   0.10505   0.11741   0.11742
  Beta virt. eigenvalues --    0.13035   0.14176   0.14176   0.14533   0.16744
  Beta virt. eigenvalues --    0.19476   0.19477   0.23254   0.23256   0.25051
  Beta virt. eigenvalues --    0.25053   0.28219   0.29139   0.30722   0.30723
  Beta virt. eigenvalues --    0.31697   0.34883   0.35384   0.35384   0.36079
  Beta virt. eigenvalues --    0.38232   0.38233   0.38487   0.39224   0.39518
  Beta virt. eigenvalues --    0.40302   0.40302   0.41109   0.41110   0.42335
  Beta virt. eigenvalues --    0.42338   0.42546   0.45632   0.45635   0.47603
  Beta virt. eigenvalues --    0.47605   0.49448   0.50853   0.50854   0.60917
  Beta virt. eigenvalues --    0.66983   0.70608   0.70895   0.70896   0.71922
  Beta virt. eigenvalues --    0.71926   0.77498   0.77502   0.77510   0.80200
  Beta virt. eigenvalues --    0.80205   0.80928   0.83905   0.83908   0.83917
  Beta virt. eigenvalues --    0.84280   0.84285   0.84354   0.86124   0.89767
  Beta virt. eigenvalues --    0.89768   0.92484   0.96631   0.96634   0.98077
  Beta virt. eigenvalues --    1.00828   1.04600   1.04605   1.05858   1.05859
  Beta virt. eigenvalues --    1.08560   1.08561   1.09593   1.10805   1.16363
  Beta virt. eigenvalues --    1.16377   1.16634   1.16645   1.17229   1.17232
  Beta virt. eigenvalues --    1.18248   1.25425   1.29005   1.29009   1.30114
  Beta virt. eigenvalues --    1.30119   1.42234   1.43076   1.43083   1.44292
  Beta virt. eigenvalues --    1.51033   1.51227   1.52168   1.52176   1.52714
  Beta virt. eigenvalues --    1.52717   1.52772   1.54833   1.56337   1.56348
  Beta virt. eigenvalues --    1.57154   1.57160   1.59970   1.62833   1.69986
  Beta virt. eigenvalues --    1.69991   1.73569   1.81706   1.81712   1.82214
  Beta virt. eigenvalues --    1.82220   1.83841   1.90575   1.94359   1.97733
  Beta virt. eigenvalues --    1.97735   2.05482   2.05490   2.12063   2.12073
  Beta virt. eigenvalues --    2.12106   2.12816   2.12821   2.20517   2.38646
  Beta virt. eigenvalues --    2.86320   2.87864   2.87875   2.98195   3.01920
  Beta virt. eigenvalues --    3.01926   3.05533   3.05548   3.06572   3.07457
  Beta virt. eigenvalues --    3.29326   3.29334   3.33918   3.36198   3.36204
  Beta virt. eigenvalues --    3.40382   3.40387   3.43133   3.43985   3.44188
  Beta virt. eigenvalues --    3.50777   3.50781   3.57412   3.57414   3.60340
  Beta virt. eigenvalues --    3.60350   3.71892   3.74237   3.74239   3.77219
  Beta virt. eigenvalues --    3.78119   3.78119   3.82114   3.82120   3.83349
  Beta virt. eigenvalues --    3.86379   3.87188   4.04239   4.04242   4.12625
  Beta virt. eigenvalues --    4.18662   4.18670   4.20322   4.20330   4.21913
  Beta virt. eigenvalues --    4.21936   4.21953   4.30467   4.58505   4.61223
  Beta virt. eigenvalues --    4.61227   4.63591   4.63593   4.66803   4.66811
  Beta virt. eigenvalues --    4.72215   4.72227   4.75275   4.80137   4.88485
  Beta virt. eigenvalues --    4.89983   4.92881   5.06019   5.06047   5.07508
  Beta virt. eigenvalues --    5.07533   5.13629   5.13638   5.16946   5.16950
  Beta virt. eigenvalues --    5.28899   5.28918   5.29048   5.29063   5.36092
  Beta virt. eigenvalues --    5.48363   6.10869   6.15894   6.27884   6.27913
  Beta virt. eigenvalues --    6.28484   6.28514   6.39720   6.47977  16.10326
  Beta virt. eigenvalues --   16.79193
          Condensed to atoms (all electrons):
               1          2          3          4          5          6
     1  C    5.950560   0.335358   0.335375   0.335321   0.106466   0.009843
     2  H    0.335358   0.268827   0.011135   0.011128   0.010090   0.000039
     3  H    0.335375   0.011135   0.268815   0.011131   0.010043  -0.000805
     4  H    0.335321   0.011128   0.011131   0.268807   0.010092   0.000038
     5  C    0.106466   0.010090   0.010043   0.010092   5.950525   0.335402
     6  H    0.009843   0.000039  -0.000805   0.000038   0.335402   0.268766
     7  H    0.009790   0.000036   0.000033  -0.000806   0.335469   0.011122
     8  H    0.009822  -0.000804   0.000034   0.000037   0.335463   0.011112
               7          8
     1  C    0.009790   0.009822
     2  H    0.000036  -0.000804
     3  H    0.000033   0.000034
     4  H   -0.000806   0.000037
     5  C    0.335469   0.335463
     6  H    0.011122   0.011112
     7  H    0.268768   0.011113
     8  H    0.011113   0.268780
          Atomic-Atomic Spin Densities.
               1          2          3          4          5          6
     1  C   -0.518134   0.004097   0.004089   0.004117  -0.000223   0.004669
     2  H    0.004097   0.016026  -0.000736  -0.000742  -0.004673   0.000007
     3  H    0.004089  -0.000736   0.016050  -0.000738  -0.004685   0.000004
     4  H    0.004117  -0.000742  -0.000738   0.016035  -0.004675   0.000008
     5  C   -0.000223  -0.004673  -0.004685  -0.004675   0.518045  -0.003957
     6  H    0.004669   0.000007   0.000004   0.000008  -0.003957  -0.016130
     7  H    0.004681   0.000009   0.000007   0.000009  -0.003938   0.000703
     8  H    0.004676   0.000007   0.000005   0.000009  -0.003951   0.000707
               7          8
     1  C    0.004681   0.004676
     2  H    0.000009   0.000007
     3  H    0.000007   0.000005
     4  H    0.000009   0.000009
     5  C   -0.003938  -0.003951
     6  H    0.000703   0.000707
     7  H   -0.016141   0.000703
     8  H    0.000703  -0.016125
 Mulliken charges and spin densities:
               1          2
     1  C   -1.092534  -0.492029
     2  H    0.364191   0.013995
     3  H    0.364239   0.013997
     4  H    0.364252   0.014022
     5  C   -1.093549   0.491943
     6  H    0.364483  -0.013991
     7  H    0.364475  -0.013968
     8  H    0.364443  -0.013969
 Sum of Mulliken charges =  -0.00000   0.00000
 Mulliken charges and spin densities with hydrogens summed into heavy atoms:
               1          2
     1  C    0.000148  -0.450015
     5  C   -0.000148   0.450015
 Electronic spatial extent (au):  <R**2>=            245.0824
 Charge=             -0.0000 electrons
 Dipole moment (field-independent basis, Debye):
    X=              0.0001    Y=             -0.0042    Z=              0.0001  Tot=              0.0042
 Quadrupole moment (field-independent basis, Debye-Ang):
   XX=            -14.3815   YY=            -18.3094   ZZ=            -14.3802
   XY=              0.0045   XZ=              0.0006   YZ=              0.0041
 Traceless Quadrupole moment (field-independent basis, Debye-Ang):
   XX=              1.3089   YY=             -2.6191   ZZ=              1.3102
   XY=              0.0045   XZ=              0.0006   YZ=              0.0041
 Octapole moment (field-independent basis, Debye-Ang**2):
  XXX=             -0.0664  YYY=             65.9248  ZZZ=             -0.0644  XYY=             -0.0353
  XXY=             17.2595  XXZ=             -0.0217  XZZ=             -0.0274  YZZ=             17.2547
  YYZ=             -0.0391  XYZ=             -0.0004
 Hexadecapole moment (field-independent basis, Debye-Ang**3):
 XXXX=            -29.5769 YYYY=           -338.9242 ZZZZ=            -29.5874 XXXY=              0.1608
 XXXZ=              0.0082 YYYX=              0.2214 YYYZ=              0.2289 ZZZX=             -0.0028
 ZZZY=              2.3188 XXYY=            -51.7509 XXZZ=             -9.8533 YYZZ=            -51.7302
 XXYZ=             -2.1112 YYXZ=             -0.0045 ZZXY=              0.0637
 N-N= 3.624341529303D+01 E-N=-2.562129973142D+02  KE= 7.898792400228D+01
                          Isotropic Fermi Contact Couplings
        Atom                 a.u.       MegaHertz       Gauss      10(-4) cm-1
     1  C(13)              0.00289       1.62577       0.58011       0.54230
     2  H(1)               0.00732      16.35216       5.83486       5.45449
     3  H(1)               0.00732      16.34978       5.83401       5.45370
     4  H(1)               0.00732      16.35595       5.83621       5.45576
     5  C(13)             -0.00269      -1.51275      -0.53979      -0.50460
     6  H(1)              -0.00732     -16.35166      -5.83468      -5.45433
     7  H(1)              -0.00731     -16.34240      -5.83137      -5.45124
     8  H(1)              -0.00731     -16.34788      -5.83333      -5.45307
 --------------------------------------------------------
       Center         ----  Spin Dipole Couplings  ----
                      3XX-RR        3YY-RR        3ZZ-RR
 --------------------------------------------------------
     1   Atom        0.257937     -0.515891      0.257954
     2   Atom        0.030971      0.004530     -0.035501
     3   Atom       -0.018910      0.004521      0.014389
     4   Atom       -0.018848      0.004510      0.014338
     5   Atom       -0.257937      0.515899     -0.257962
     6   Atom        0.018796     -0.004508     -0.014288
     7   Atom        0.018915     -0.004487     -0.014428
     8   Atom       -0.030990     -0.004508      0.035499
 --------------------------------------------------------
                        XY            XZ            YZ
 --------------------------------------------------------
     1   Atom        0.001279      0.000003      0.000762
     2   Atom        0.000046     -0.000004      0.002927
     3   Atom        0.002563      0.028765     -0.001427
     4   Atom       -0.002635     -0.028788     -0.001525
     5   Atom       -0.000589      0.000002     -0.001003
     6   Atom       -0.002505     -0.028834      0.001407
     7   Atom        0.002551      0.028754      0.001443
     8   Atom       -0.000018      0.000077     -0.002824
 --------------------------------------------------------


 ---------------------------------------------------------------------------------
              Anisotropic Spin Dipole Couplings in Principal Axis System
 ---------------------------------------------------------------------------------

       Atom             a.u.   MegaHertz   Gauss  10(-4) cm-1        Axes

              Baa    -0.5159   -69.228   -24.702   -23.092 -0.0017  1.0000 -0.0010
     1 C(13)  Bbb     0.2579    34.613    12.351    11.546  0.9634  0.0013 -0.2682
              Bcc     0.2580    34.615    12.352    11.546  0.2682  0.0014  0.9634
 
              Baa    -0.0357   -19.055    -6.799    -6.356  0.0001 -0.0725  0.9974
     2 H(1)   Bbb     0.0047     2.531     0.903     0.844 -0.0017  0.9974  0.0725
              Bcc     0.0310    16.525     5.896     5.512  1.0000  0.0018  0.0000
 
              Baa    -0.0357   -19.053    -6.799    -6.356  0.8640 -0.0727 -0.4982
     3 H(1)   Bbb     0.0047     2.526     0.901     0.843  0.0622  0.9974 -0.0378
              Bcc     0.0310    16.527     5.897     5.513  0.4996  0.0017  0.8663
 
              Baa    -0.0357   -19.055    -6.799    -6.356  0.8634  0.0755  0.4989
     4 H(1)   Bbb     0.0047     2.529     0.903     0.844 -0.0654  0.9971 -0.0377
              Bcc     0.0310    16.526     5.897     5.512 -0.5003 -0.0001  0.8658
 
              Baa    -0.2580   -34.616   -12.352   -11.547 -0.0577  0.0013  0.9983
     5 C(13)  Bbb    -0.2579   -34.613   -12.351   -11.546  0.9983  0.0008  0.0577
              Bcc     0.5159    69.229    24.703    23.092 -0.0008  1.0000 -0.0013
 
              Baa    -0.0310   -16.534    -5.900    -5.515  0.5012  0.0014  0.8653
     6 H(1)   Bbb    -0.0047    -2.515    -0.897    -0.839  0.0610  0.9975 -0.0370
              Bcc     0.0357    19.048     6.797     6.354  0.8632 -0.0713 -0.4999
 
              Baa    -0.0310   -16.537    -5.901    -5.516 -0.4992  0.0009  0.8665
     7 H(1)   Bbb    -0.0047    -2.508    -0.895    -0.837 -0.0626  0.9973 -0.0371
              Bcc     0.0357    19.045     6.796     6.353  0.8642  0.0728  0.4979
 
              Baa    -0.0310   -16.535    -5.900    -5.515  1.0000  0.0006 -0.0011
     8 H(1)   Bbb    -0.0047    -2.511    -0.896    -0.838 -0.0005  0.9975  0.0701
              Bcc     0.0357    19.046     6.796     6.353  0.0012 -0.0701  0.9975
 

 ---------------------------------------------------------------------------------


 Test job not archived.
 1\1\GINC-NODE-6-11\POpt\UwB97XD\Aug-CC-pVTZ\C2H6\CAVALLOTTI\27-May-202
 3\1\\# uwb97xd/aug-cc-pvtz opt=(noeig,intern,maxcyc=50) # int=ultrafin
 e nosym iop(7/33=1) guess=(mix,always)\\geom 0\\0,1\C\H,1,R1\H,1,R2,2,
 A2\H,1,R3,2,A3,3,D3,0\C,1,RTS,2,AABS1,3,BABS1,0\H,5,R21,1,AABS2,2,BABS
 2,0\H,5,R22,6,A22,1,BABS3,0\H,5,R23,6,A23,7,D23,0\\BABS3=90.10984836\B
 ABS2=59.91805784\AABS2=90.02339625\BABS1=89.92335578\AABS1=89.92999493
 \D3=179.8076\R21=1.0782\R22=1.0782\R23=1.0782\A22=119.9721\A23=120.020
 7\D23=179.8076\A3=120.0207\A2=119.9721\R3=1.0782\R2=1.0782\R1=1.0782\R
 TS=2.4\\Version=EM64L-G09RevD.01\HF=-79.708217\S2=0.193798\S2-1=0.\S2A
 =0.001464\RMSD=1.775e-09\RMSF=1.977e-02\Dipole=0.0000571,-0.0016449,0.
 0000383\Quadrupole=0.9731294,-1.9472196,0.9740902,0.0033351,0.0004589,
 0.0030723\PG=C01 [X(C2H6)]\\@


 THE MOST INCOMPREHENSIBLE THING ABOUT THE WORLD
 IS THAT IT IS COMPREHENSIBLE. -- A. EINSTEIN
 Job cpu time:       0 days  1 hours 48 minutes 29.9 seconds.
 File lengths (MBytes):  RWF=    106 Int=      0 D2E=      0 Chk=      7 Scr=      1
 Normal termination of Gaussian 09 at Sat May 27 09:25:39 2023.
