 Entering Gaussian System, Link 0=g09
 Input=geom.com
 Output=geom.log
 Initial command:
 /software/cinetica/g09d1/g09d01/d01/build-node-6-2-59348/src/main/l1.exe "/scratch/cc/139119/Gau-39456.inp" -scrdir="/scratch/cc/139119/"
 Entering Link 1 = /software/cinetica/g09d1/g09d01/d01/build-node-6-2-59348/src/main/l1.exe PID=     39457.
  
 Copyright (c) 1988,1990,1992,1993,1995,1998,2003,2009,2013,
            Gaussian, Inc.  All Rights Reserved.
  
 This is part of the Gaussian(R) 09 program.  It is based on
 the Gaussian(R) 03 system (copyright 2003, Gaussian, Inc.),
 the Gaussian(R) 98 system (copyright 1998, Gaussian, Inc.),
 the Gaussian(R) 94 system (copyright 1995, Gaussian, Inc.),
 the Gaussian 92(TM) system (copyright 1992, Gaussian, Inc.),
 the Gaussian 90(TM) system (copyright 1990, Gaussian, Inc.),
 the Gaussian 88(TM) system (copyright 1988, Gaussian, Inc.),
 the Gaussian 86(TM) system (copyright 1986, Carnegie Mellon
 University), and the Gaussian 82(TM) system (copyright 1983,
 Carnegie Mellon University). Gaussian is a federally registered
 trademark of Gaussian, Inc.
  
 This software contains proprietary and confidential information,
 including trade secrets, belonging to Gaussian, Inc.
  
 This software is provided under written license and may be
 used, copied, transmitted, or stored only in accord with that
 written license.
  
 The following legend is applicable only to US Government
 contracts under FAR:
  
                    RESTRICTED RIGHTS LEGEND
  
 Use, reproduction and disclosure by the US Government is
 subject to restrictions as set forth in subparagraphs (a)
 and (c) of the Commercial Computer Software - Restricted
 Rights clause in FAR 52.227-19.
  
 Gaussian, Inc.
 340 Quinnipiac St., Bldg. 40, Wallingford CT 06492
  
  
 ---------------------------------------------------------------
 Warning -- This program may not be used in any manner that
 competes with the business of Gaussian, Inc. or will provide
 assistance to any competitor of Gaussian, Inc.  The licensee
 of this program is prohibited from giving any competitor of
 Gaussian, Inc. access to this program.  By using this program,
 the user acknowledges that Gaussian, Inc. is engaged in the
 business of creating and licensing software in the field of
 computational chemistry and represents and warrants to the
 licensee that it is not a competitor of Gaussian, Inc. and that
 it will not use this program in any manner prohibited above.
 ---------------------------------------------------------------
  

 Cite this work as:
 Gaussian 09, Revision D.01,
 M. J. Frisch, G. W. Trucks, H. B. Schlegel, G. E. Scuseria, 
 M. A. Robb, J. R. Cheeseman, G. Scalmani, V. Barone, B. Mennucci, 
 G. A. Petersson, H. Nakatsuji, M. Caricato, X. Li, H. P. Hratchian, 
 A. F. Izmaylov, J. Bloino, G. Zheng, J. L. Sonnenberg, M. Hada, 
 M. Ehara, K. Toyota, R. Fukuda, J. Hasegawa, M. Ishida, T. Nakajima, 
 Y. Honda, O. Kitao, H. Nakai, T. Vreven, J. A. Montgomery, Jr., 
 J. E. Peralta, F. Ogliaro, M. Bearpark, J. J. Heyd, E. Brothers, 
 K. N. Kudin, V. N. Staroverov, T. Keith, R. Kobayashi, J. Normand, 
 K. Raghavachari, A. Rendell, J. C. Burant, S. S. Iyengar, J. Tomasi, 
 M. Cossi, N. Rega, J. M. Millam, M. Klene, J. E. Knox, J. B. Cross, 
 V. Bakken, C. Adamo, J. Jaramillo, R. Gomperts, R. E. Stratmann, 
 O. Yazyev, A. J. Austin, R. Cammi, C. Pomelli, J. W. Ochterski, 
 R. L. Martin, K. Morokuma, V. G. Zakrzewski, G. A. Voth, 
 P. Salvador, J. J. Dannenberg, S. Dapprich, A. D. Daniels, 
 O. Farkas, J. B. Foresman, J. V. Ortiz, J. Cioslowski, 
 and D. J. Fox, Gaussian, Inc., Wallingford CT, 2013.
 
 ******************************************
 Gaussian 09:  EM64L-G09RevD.01 24-Apr-2013
                27-May-2023 
 ******************************************
 %mem=400MW
 %chk=tmp
 %NProcShared= 32
 Will use up to   32 processors via shared memory.
 ----------------------------------------------------------------------
 # uwb97xd/aug-cc-pvtz opt=(noeig,intern,maxcyc=50) # int=ultrafine nos
 ym freq iop(7/33=1) guess=(mix,always)
 ----------------------------------------------------------------------
 1/6=50,10=7,11=1,14=-1,18=40,26=4,38=1/1,3;
 2/12=2,15=1,17=6,18=5,29=3,40=1/2;
 3/5=16,6=1,7=10,11=2,16=1,25=1,30=1,71=1,74=-58,75=-5,116=2/1,2,3;
 4/13=-1/1;
 5/5=2,38=5/2;
 6/7=2,8=2,9=2,10=2,28=1/1;
 7/29=1,30=1,33=1/1,2,3,16;
 1/6=50,10=7,11=1,14=-1,18=40,26=4/3(2);
 2/15=1,29=3/2;
 99//99;
 2/15=1,29=3/2;
 3/5=16,6=1,7=10,11=2,16=1,25=1,30=1,71=1,74=-58,75=-5,116=2/1,2,3;
 4/13=-1/1;
 5/5=2,38=5/2;
 7/30=1,33=1/1,2,3,16;
 1/6=50,11=1,14=-1,18=40,26=4/3(-5);
 2/15=1,29=3/2;
 6/7=2,8=2,9=2,10=2,19=2,28=1/1;
 99/9=1/99;
 ------
 geom 0
 ------
 Symbolic Z-matrix:
 Charge =  0 Multiplicity = 1
 C1
 H2                   C1   R1
 H3                   C1   R2       H2   A2
 H4                   C1   R3       H2   A3       H3   D3       0
 C21                  C1   BB       H2   ANG1     H3   DH1      0
 H22                  C21  R21      C1   ANG2     H2   DH2      0
 H23                  C21  R22      H22  A22      C1   DH3      0
 H24                  C21  R23      H22  A23      H23  D23      0
       Variables:
  R1                    1.0834                   
  R2                    1.0835                   
  R3                    1.0835                   
  A2                  112.8034                   
  A3                  112.8036                   
  D3                  230.784                    
  R21                   1.0834                   
  R22                   1.0835                   
  R23                   1.0835                   
  A22                 112.8017                   
  A23                 112.8053                   
  D23                 129.2159                   
  ANG2                105.9023                   
  DH3                 115.383                    
  DH2                  60.0096                   
  DH1                 115.3954                   
  ANG1                105.8979                   
       Constants:
  BB                    2.4                      
 

 GradGradGradGradGradGradGradGradGradGradGradGradGradGradGradGradGradGrad
 Berny optimization.
 Initialization pass.
                       ----------------------------
                       !    Initial Parameters    !
                       ! (Angstroms and Degrees)  !
 ----------------------                            ----------------------
 !      Name          Value   Derivative information (Atomic Units)     !
 ------------------------------------------------------------------------
 !       R1          1.0834   estimate D2E/DX2                          !
 !       R2          1.0835   estimate D2E/DX2                          !
 !       R3          1.0835   estimate D2E/DX2                          !
 !       A2        112.8034   estimate D2E/DX2                          !
 !       A3        112.8036   estimate D2E/DX2                          !
 !       D3        230.784    estimate D2E/DX2                          !
 !       R21         1.0834   estimate D2E/DX2                          !
 !       R22         1.0835   estimate D2E/DX2                          !
 !       R23         1.0835   estimate D2E/DX2                          !
 !       A22       112.8017   estimate D2E/DX2                          !
 !       A23       112.8053   estimate D2E/DX2                          !
 !       D23       129.2159   estimate D2E/DX2                          !
 !      ANG2       105.9023   estimate D2E/DX2                          !
 !       DH3       115.383    estimate D2E/DX2                          !
 !       DH2        60.0096   estimate D2E/DX2                          !
 !       DH1       115.3954   estimate D2E/DX2                          !
 !      ANG1       105.8979   estimate D2E/DX2                          !
 !       BB          2.4      Frozen                                    !
 ------------------------------------------------------------------------
 Trust Radius=3.00D-01 FncErr=1.00D-07 GrdErr=1.00D-06
 Number of steps in this run=     50 maximum allowed number of steps=    100.
 GradGradGradGradGradGradGradGradGradGradGradGradGradGradGradGradGradGrad

 ---------------------------------------------------------------------------------------------------
                            Z-MATRIX (ANGSTROMS AND DEGREES)
   CD    Cent   Atom    N1       Length/X        N2       Alpha/Y        N3        Beta/Z          J
 ---------------------------------------------------------------------------------------------------
      1      1  C 
      2      2  H        1   1.083400(     1)
      3      3  H        1   1.083500(     2)      2  112.803(     8)
      4      4  H        1   1.083500(     3)      2  112.804(     9)      3  230.784(    14)      0
      5      5  C        1   2.400000(     4)      2  105.898(    10)      3  115.395(    15)      0
      6      6  H        5   1.083400(     5)      1  105.902(    11)      2   60.010(    16)      0
      7      7  H        5   1.083500(     6)      6  112.802(    12)      1  115.383(    17)      0
      8      8  H        5   1.083500(     7)      6  112.805(    13)      7  129.216(    18)      0
 ---------------------------------------------------------------------------------------------------
                         Z-Matrix orientation:                         
 ---------------------------------------------------------------------
 Center     Atomic      Atomic             Coordinates (Angstroms)
 Number     Number       Type             X           Y           Z
 ---------------------------------------------------------------------
      1          6           0        0.000000    0.000000    0.000000
      2          1           0        0.000000    0.000000    1.083400
      3          1           0        0.998814    0.000000   -0.419932
      4          1           0       -0.631495    0.773848   -0.419936
      5          6           0       -0.989902   -2.085161   -0.657418
      6          1           0       -1.988754   -2.084928   -0.237834
      7          1           0       -0.358265   -2.858929   -0.237549
      8          1           0       -0.989530   -2.085539   -1.740917
 ---------------------------------------------------------------------
                    Distance matrix (angstroms):
                    1          2          3          4          5
     1  C    0.000000
     2  H    1.083400   0.000000
     3  H    1.083500   1.804893   0.000000
     4  H    1.083500   1.804895   1.804646   0.000000
     5  C    2.400000   2.891063   2.891243   2.891156   0.000000
     6  H    2.891130   3.169815   3.647690   3.169844   1.083400
     7  H    2.891065   3.169658   3.169921   3.647600   1.083500
     8  H    2.891269   3.647659   3.169856   3.170059   1.083500
                    6          7          8
     6  H    0.000000
     7  H    1.804875   0.000000
     8  H    1.804912   1.804645   0.000000
 Symmetry turned off by external request.
 Stoichiometry    C2H6
 Framework group  C1[X(C2H6)]
 Deg. of freedom    18
 Full point group                 C1      NOp   1
 Rotational constants (GHZ):     76.9730380      9.8339928      9.8338650
 Standard basis: Aug-CC-pVTZ (5D, 7F)
   230 basis functions,   306 primitive gaussians,   260 cartesian basis functions
     9 alpha electrons        9 beta electrons
       nuclear repulsion energy        35.3057389297 Hartrees.
 NAtoms=    8 NActive=    8 NUniq=    8 SFac= 1.00D+00 NAtFMM=   60 NAOKFM=F Big=F
 Integral buffers will be    131072 words long.
 Raffenetti 2 integral format.
 Two-electron integral symmetry is turned off.
 Nuclear repulsion after empirical dispersion term =       35.3038192062 Hartrees.
 One-electron integrals computed using PRISM.
 NBasis=   230 RedAO= T EigKep=  6.51D-05  NBF=   230
 NBsUse=   230 1.00D-06 EigRej= -1.00D+00 NBFU=   230
 ExpMin= 2.53D-02 ExpMax= 8.24D+03 ExpMxC= 2.81D+02 IAcc=3 IRadAn=         5 AccDes= 0.00D+00
 Harris functional with IExCor= 4639 and IRadAn=       5 diagonalized for initial guess.
 HarFok:  IExCor= 4639 AccDes= 0.00D+00 IRadAn=         5 IDoV= 1 UseB2=F ITyADJ=14
 ICtDFT=  3500011 ScaDFX=  1.000000  1.000000  1.000000  1.000000
 FoFCou: FMM=F IPFlag=           0 FMFlag=      100000 FMFlg1=           0
         NFxFlg=           0 DoJE=T BraDBF=F KetDBF=T FulRan=T
         wScrn=  0.000000 ICntrl=     500 IOpCl=  0 I1Cent=   200000004 NGrid=           0
         NMat0=    1 NMatS0=      1 NMatT0=    0 NMatD0=    1 NMtDS0=    0 NMtDT0=    0
 Symmetry not used in FoFCou.
 Mixing orbitals, IMix= 1 IMixAn=  0 NRI=1 NE=    9 Coef=  7.07106781D-01  7.07106781D-01
 Mixing orbitals, IMix= 1 IMixAn=  0 NRI=1 NE=    9 Coef= -7.07106781D-01  7.07106781D-01
 Initial guess <Sx>= 0.0000 <Sy>= 0.0000 <Sz>= 0.0000 <S**2>= 1.0000 S= 0.6180
 Requested convergence on RMS density matrix=1.00D-08 within 128 cycles.
 Requested convergence on MAX density matrix=1.00D-06.
 Requested convergence on             energy=1.00D-06.
 No special actions if energy rises.
 SCF Done:  E(UwB97XD) =  -79.7207353804     A.U. after   17 cycles
            NFock= 17  Conv=0.31D-08     -V/T= 2.0111
 <Sx>= 0.0000 <Sy>= 0.0000 <Sz>= 0.0000 <S**2>= 0.0000 S= 0.0000
 <L.S>=  0.00000000000    
 Annihilation of the first spin contaminant:
 S**2 before annihilation     0.0000,   after    -0.0000

 **********************************************************************

            Population analysis using the SCF density.

 **********************************************************************

 Alpha  occ. eigenvalues --  -10.30661 -10.30659  -0.78140  -0.75248  -0.49623
 Alpha  occ. eigenvalues --   -0.49619  -0.47779  -0.47774  -0.32717
 Alpha virt. eigenvalues --    0.01882   0.03358   0.04722   0.04723   0.05715
 Alpha virt. eigenvalues --    0.06828   0.06828   0.10520   0.12683   0.12685
 Alpha virt. eigenvalues --    0.13307   0.14130   0.14285   0.14286   0.16286
 Alpha virt. eigenvalues --    0.20064   0.20065   0.21478   0.21479   0.24791
 Alpha virt. eigenvalues --    0.24792   0.29490   0.30471   0.31637   0.31637
 Alpha virt. eigenvalues --    0.33039   0.33663   0.34125   0.34125   0.35655
 Alpha virt. eigenvalues --    0.35656   0.36416   0.38246   0.38376   0.38805
 Alpha virt. eigenvalues --    0.40072   0.40074   0.40688   0.40689   0.43206
 Alpha virt. eigenvalues --    0.45825   0.45828   0.46066   0.46066   0.47915
 Alpha virt. eigenvalues --    0.47917   0.48106   0.50374   0.50374   0.63905
 Alpha virt. eigenvalues --    0.69145   0.69679   0.69682   0.70904   0.70907
 Alpha virt. eigenvalues --    0.70914   0.76366   0.76367   0.78492   0.78856
 Alpha virt. eigenvalues --    0.78857   0.82845   0.83434   0.85210   0.90855
 Alpha virt. eigenvalues --    0.90856   0.91561   0.92822   0.92823   0.92996
 Alpha virt. eigenvalues --    0.92997   0.93147   0.93148   0.93151   0.97396
 Alpha virt. eigenvalues --    0.99187   0.99189   0.99425   1.06496   1.06603
 Alpha virt. eigenvalues --    1.06603   1.08547   1.08549   1.09477   1.09478
 Alpha virt. eigenvalues --    1.13399   1.16087   1.16090   1.16265   1.17347
 Alpha virt. eigenvalues --    1.17350   1.18080   1.23319   1.23321   1.27604
 Alpha virt. eigenvalues --    1.29072   1.29072   1.38762   1.41886   1.41889
 Alpha virt. eigenvalues --    1.48804   1.48808   1.52636   1.53305   1.54556
 Alpha virt. eigenvalues --    1.54561   1.54889   1.54893   1.56081   1.56249
 Alpha virt. eigenvalues --    1.57504   1.63149   1.63156   1.65422   1.66294
 Alpha virt. eigenvalues --    1.68625   1.68627   1.75447   1.77785   1.77790
 Alpha virt. eigenvalues --    1.81276   1.81282   1.81744   1.95277   1.95279
 Alpha virt. eigenvalues --    2.03087   2.03097   2.07916   2.09362   2.09363
 Alpha virt. eigenvalues --    2.10106   2.10110   2.12919   2.16557   2.43940
 Alpha virt. eigenvalues --    2.79761   2.85710   2.93699   3.04077   3.06555
 Alpha virt. eigenvalues --    3.06557   3.07025   3.07030   3.18870   3.18874
 Alpha virt. eigenvalues --    3.20115   3.20118   3.33432   3.34739   3.34740
 Alpha virt. eigenvalues --    3.35244   3.37820   3.41006   3.41132   3.41135
 Alpha virt. eigenvalues --    3.51208   3.51210   3.52473   3.52474   3.61552
 Alpha virt. eigenvalues --    3.61557   3.71707   3.71713   3.74635   3.78991
 Alpha virt. eigenvalues --    3.80009   3.80016   3.80021   3.85202   3.87482
 Alpha virt. eigenvalues --    3.87483   3.93028   3.93029   3.94654   3.99502
 Alpha virt. eigenvalues --    3.99503   4.12660   4.22588   4.24124   4.24128
 Alpha virt. eigenvalues --    4.27575   4.27581   4.29297   4.52038   4.52041
 Alpha virt. eigenvalues --    4.53458   4.53463   4.57629   4.61910   4.66680
 Alpha virt. eigenvalues --    4.68086   4.68096   4.72965   4.72966   4.86677
 Alpha virt. eigenvalues --    4.88597   4.93514   4.93529   4.95895   4.95910
 Alpha virt. eigenvalues --    5.06920   5.17750   5.17763   5.22819   5.22834
 Alpha virt. eigenvalues --    5.26804   5.36852   5.56225   5.56516   5.69692
 Alpha virt. eigenvalues --    5.69713   5.72666   5.72685   5.78392   5.83375
 Alpha virt. eigenvalues --    6.33060   6.33077   6.36376   6.36392  16.06601
 Alpha virt. eigenvalues --   16.17927
  Beta  occ. eigenvalues --  -10.30661 -10.30659  -0.78140  -0.75248  -0.49623
  Beta  occ. eigenvalues --   -0.49619  -0.47779  -0.47774  -0.32717
  Beta virt. eigenvalues --    0.01882   0.03358   0.04722   0.04723   0.05715
  Beta virt. eigenvalues --    0.06828   0.06828   0.10520   0.12683   0.12685
  Beta virt. eigenvalues --    0.13307   0.14130   0.14285   0.14286   0.16286
  Beta virt. eigenvalues --    0.20064   0.20065   0.21478   0.21479   0.24791
  Beta virt. eigenvalues --    0.24792   0.29490   0.30471   0.31637   0.31637
  Beta virt. eigenvalues --    0.33039   0.33663   0.34125   0.34125   0.35655
  Beta virt. eigenvalues --    0.35656   0.36416   0.38246   0.38376   0.38805
  Beta virt. eigenvalues --    0.40072   0.40074   0.40688   0.40689   0.43206
  Beta virt. eigenvalues --    0.45825   0.45828   0.46066   0.46066   0.47915
  Beta virt. eigenvalues --    0.47917   0.48106   0.50374   0.50374   0.63905
  Beta virt. eigenvalues --    0.69145   0.69679   0.69682   0.70904   0.70907
  Beta virt. eigenvalues --    0.70914   0.76366   0.76367   0.78492   0.78856
  Beta virt. eigenvalues --    0.78857   0.82845   0.83434   0.85210   0.90855
  Beta virt. eigenvalues --    0.90856   0.91561   0.92822   0.92823   0.92996
  Beta virt. eigenvalues --    0.92997   0.93147   0.93148   0.93151   0.97396
  Beta virt. eigenvalues --    0.99187   0.99189   0.99425   1.06496   1.06603
  Beta virt. eigenvalues --    1.06603   1.08547   1.08549   1.09477   1.09478
  Beta virt. eigenvalues --    1.13399   1.16087   1.16090   1.16265   1.17347
  Beta virt. eigenvalues --    1.17350   1.18080   1.23319   1.23321   1.27604
  Beta virt. eigenvalues --    1.29072   1.29072   1.38762   1.41886   1.41889
  Beta virt. eigenvalues --    1.48804   1.48808   1.52636   1.53305   1.54556
  Beta virt. eigenvalues --    1.54561   1.54889   1.54893   1.56081   1.56249
  Beta virt. eigenvalues --    1.57504   1.63149   1.63156   1.65422   1.66294
  Beta virt. eigenvalues --    1.68625   1.68627   1.75447   1.77785   1.77790
  Beta virt. eigenvalues --    1.81276   1.81282   1.81744   1.95277   1.95279
  Beta virt. eigenvalues --    2.03087   2.03097   2.07916   2.09362   2.09363
  Beta virt. eigenvalues --    2.10106   2.10110   2.12919   2.16557   2.43940
  Beta virt. eigenvalues --    2.79761   2.85710   2.93699   3.04077   3.06555
  Beta virt. eigenvalues --    3.06557   3.07025   3.07030   3.18870   3.18874
  Beta virt. eigenvalues --    3.20115   3.20118   3.33432   3.34739   3.34740
  Beta virt. eigenvalues --    3.35244   3.37820   3.41006   3.41132   3.41135
  Beta virt. eigenvalues --    3.51208   3.51210   3.52473   3.52474   3.61552
  Beta virt. eigenvalues --    3.61557   3.71707   3.71713   3.74635   3.78991
  Beta virt. eigenvalues --    3.80009   3.80016   3.80021   3.85202   3.87482
  Beta virt. eigenvalues --    3.87483   3.93028   3.93029   3.94654   3.99502
  Beta virt. eigenvalues --    3.99503   4.12660   4.22588   4.24124   4.24128
  Beta virt. eigenvalues --    4.27575   4.27581   4.29297   4.52038   4.52041
  Beta virt. eigenvalues --    4.53458   4.53463   4.57629   4.61910   4.66680
  Beta virt. eigenvalues --    4.68086   4.68096   4.72965   4.72966   4.86677
  Beta virt. eigenvalues --    4.88597   4.93514   4.93529   4.95895   4.95910
  Beta virt. eigenvalues --    5.06920   5.17750   5.17763   5.22819   5.22834
  Beta virt. eigenvalues --    5.26804   5.36852   5.56225   5.56516   5.69692
  Beta virt. eigenvalues --    5.69713   5.72666   5.72685   5.78392   5.83375
  Beta virt. eigenvalues --    6.33060   6.33077   6.36376   6.36392  16.06601
  Beta virt. eigenvalues --   16.17927
          Condensed to atoms (all electrons):
               1          2          3          4          5          6
     1  C    5.551024   0.368351   0.368271   0.368311   0.256823  -0.001707
     2  H    0.368351   0.305142   0.012816   0.012818  -0.001671   0.000015
     3  H    0.368271   0.012816   0.305178   0.012824  -0.001712  -0.000022
     4  H    0.368311   0.012818   0.012824   0.305161  -0.001685   0.000015
     5  C    0.256823  -0.001671  -0.001712  -0.001685   5.551024   0.368292
     6  H   -0.001707   0.000015  -0.000022   0.000015   0.368292   0.305152
     7  H   -0.001685   0.000015   0.000015  -0.000023   0.368303   0.012817
     8  H   -0.001675  -0.000023   0.000014   0.000015   0.368339   0.012816
               7          8
     1  C   -0.001685  -0.001675
     2  H    0.000015  -0.000023
     3  H    0.000015   0.000014
     4  H   -0.000023   0.000015
     5  C    0.368303   0.368339
     6  H    0.012817   0.012816
     7  H    0.305165   0.012826
     8  H    0.012826   0.305165
          Atomic-Atomic Spin Densities.
               1          2          3          4          5          6
     1  C   -0.000004  -0.000000  -0.000000  -0.000000  -0.000000   0.000000
     2  H   -0.000000   0.000000   0.000000   0.000000  -0.000000   0.000000
     3  H   -0.000000   0.000000   0.000000   0.000000  -0.000000  -0.000000
     4  H   -0.000000   0.000000   0.000000   0.000000  -0.000000   0.000000
     5  C   -0.000000  -0.000000  -0.000000  -0.000000   0.000004   0.000000
     6  H    0.000000   0.000000  -0.000000   0.000000   0.000000  -0.000000
     7  H    0.000000  -0.000000  -0.000000  -0.000000   0.000000  -0.000000
     8  H    0.000000   0.000000  -0.000000   0.000000   0.000000  -0.000000
               7          8
     1  C    0.000000   0.000000
     2  H   -0.000000   0.000000
     3  H   -0.000000  -0.000000
     4  H   -0.000000   0.000000
     5  C    0.000000   0.000000
     6  H   -0.000000  -0.000000
     7  H   -0.000000  -0.000000
     8  H   -0.000000  -0.000000
 Mulliken charges and spin densities:
               1          2
     1  C   -0.907713  -0.000004
     2  H    0.302535  -0.000000
     3  H    0.302615  -0.000000
     4  H    0.302563  -0.000000
     5  C   -0.907713   0.000004
     6  H    0.302623   0.000000
     7  H    0.302567   0.000000
     8  H    0.302523   0.000000
 Sum of Mulliken charges =  -0.00000   0.00000
 Mulliken charges and spin densities with hydrogens summed into heavy atoms:
               1          2
     1  C    0.000000  -0.000004
     5  C   -0.000000   0.000004
 Electronic spatial extent (au):  <R**2>=            258.2402
 Charge=             -0.0000 electrons
 Dipole moment (field-independent basis, Debye):
    X=              0.0001    Y=             -0.0000    Z=              0.0000  Tot=              0.0001
 Quadrupole moment (field-independent basis, Debye-Ang):
   XX=            -14.7607   YY=            -14.4018   ZZ=            -14.8185
   XY=              0.2200   XZ=              0.0687   YZ=              0.1461
 Traceless Quadrupole moment (field-independent basis, Debye-Ang):
   XX=             -0.1004   YY=              0.2585   ZZ=             -0.1581
   XY=              0.2200   XZ=              0.0687   YZ=              0.1461
 Octapole moment (field-independent basis, Debye-Ang**2):
  XXX=             21.9146  YYY=             45.0460  ZZZ=             14.6151  XYY=              6.6699
  XXY=             15.1711  XXZ=              4.7845  XZZ=              7.2899  YZZ=             15.3532
  YYZ=              4.4281  XYZ=             -0.2163
 Hexadecapole moment (field-independent basis, Debye-Ang**3):
 XXXX=            -72.9343 YYYY=           -232.0161 ZZZZ=            -46.8881 XXXY=            -46.0479
 XXXZ=            -17.0097 YYYX=            -51.4302 YYYZ=            -34.1533 ZZZX=            -13.9545
 ZZZY=            -29.3897 XXYY=            -51.5589 XXZZ=            -21.9688 YYZZ=            -47.5796
 XXYZ=            -11.6206 YYXZ=             -4.7220 ZZXY=            -15.6995
 N-N= 3.530381920615D+01 E-N=-2.542284666244D+02  KE= 7.884419455165D+01
                          Isotropic Fermi Contact Couplings
        Atom                 a.u.       MegaHertz       Gauss      10(-4) cm-1
     1  C(13)             -0.00000      -0.00046      -0.00016      -0.00015
     2  H(1)               0.00000       0.00009       0.00003       0.00003
     3  H(1)               0.00000       0.00009       0.00003       0.00003
     4  H(1)               0.00000       0.00009       0.00003       0.00003
     5  C(13)              0.00000       0.00046       0.00016       0.00015
     6  H(1)              -0.00000      -0.00009      -0.00003      -0.00003
     7  H(1)              -0.00000      -0.00009      -0.00003      -0.00003
     8  H(1)              -0.00000      -0.00009      -0.00003      -0.00003
 --------------------------------------------------------
       Center         ----  Spin Dipole Couplings  ----
                      3XX-RR        3YY-RR        3ZZ-RR
 --------------------------------------------------------
     1   Atom        0.000001     -0.000003      0.000002
     2   Atom        0.000000      0.000000     -0.000000
     3   Atom       -0.000000      0.000000      0.000000
     4   Atom       -0.000000     -0.000000      0.000000
     5   Atom       -0.000001      0.000003     -0.000002
     6   Atom        0.000000     -0.000000     -0.000000
     7   Atom        0.000000      0.000000     -0.000000
     8   Atom       -0.000000     -0.000000      0.000000
 --------------------------------------------------------
                        XY            XZ            YZ
 --------------------------------------------------------
     1   Atom       -0.000002     -0.000001     -0.000002
     2   Atom       -0.000000      0.000000      0.000000
     3   Atom       -0.000000      0.000000     -0.000000
     4   Atom        0.000000     -0.000000      0.000000
     5   Atom        0.000002      0.000001      0.000002
     6   Atom        0.000000     -0.000000      0.000000
     7   Atom       -0.000000      0.000000     -0.000000
     8   Atom        0.000000     -0.000000     -0.000000
 --------------------------------------------------------


 ---------------------------------------------------------------------------------
              Anisotropic Spin Dipole Couplings in Principal Axis System
 ---------------------------------------------------------------------------------

       Atom             a.u.   MegaHertz   Gauss  10(-4) cm-1        Axes

              Baa    -0.0000    -0.001    -0.000    -0.000  0.4124  0.8688  0.2740
     1 C(13)  Bbb     0.0000     0.000     0.000     0.000  0.6044 -0.4860  0.6312
              Bcc     0.0000     0.000     0.000     0.000 -0.6816  0.0947  0.7256
 
              Baa    -0.0000    -0.000    -0.000    -0.000 -0.0452 -0.0953  0.9944
     2 H(1)   Bbb     0.0000     0.000     0.000     0.000  0.4264  0.8984  0.1055
              Bcc     0.0000     0.000     0.000     0.000  0.9034 -0.4288  0.0000
 
              Baa    -0.0000    -0.000    -0.000    -0.000  0.8992 -0.0952 -0.4270
     3 H(1)   Bbb     0.0000     0.000     0.000     0.000  0.2624  0.8983  0.3523
              Bcc     0.0000     0.000     0.000     0.000  0.3501 -0.4289  0.8328
 
              Baa    -0.0000    -0.000    -0.000    -0.000  0.6422 -0.6366  0.4270
     4 H(1)   Bbb     0.0000     0.000     0.000     0.000  0.5301  0.7712  0.3524
              Bcc     0.0000     0.000     0.000     0.000 -0.5536  0.0000  0.8328
 
              Baa    -0.0000    -0.000    -0.000    -0.000  0.8495 -0.2582 -0.4602
     5 C(13)  Bbb    -0.0000    -0.000    -0.000    -0.000  0.3291 -0.4224  0.8445
              Bcc     0.0000     0.001     0.000     0.000  0.4124  0.8689  0.2739
 
              Baa    -0.0000    -0.000    -0.000    -0.000  0.3498 -0.4286  0.8330
     6 H(1)   Bbb    -0.0000    -0.000    -0.000    -0.000  0.2625  0.8984  0.3520
              Bcc     0.0000     0.000     0.000     0.000  0.8993 -0.0955 -0.4268
 
              Baa    -0.0000    -0.000    -0.000    -0.000 -0.5535  0.0001  0.8329
     7 H(1)   Bbb    -0.0000    -0.000    -0.000    -0.000  0.5301  0.7713  0.3522
              Bcc     0.0000     0.000     0.000     0.000  0.6424 -0.6365  0.4269
 
              Baa    -0.0000    -0.000    -0.000    -0.000  0.9034 -0.4289  0.0005
     8 H(1)   Bbb    -0.0000    -0.000    -0.000    -0.000  0.4264  0.8984  0.1053
              Bcc     0.0000     0.000     0.000     0.000 -0.0456 -0.0949  0.9944
 

 ---------------------------------------------------------------------------------

 DipInt: DoE/N= T T RetVal/Mat= T F Init=T NMatP=  1 IDeriv=0 Min/MaxMlt=  1  1
 Entering OneElI...
 Multipole integrals L=1 to 1 MinM= 0 MaxM= 0.
 Requested accuracy = 0.1000D-12
 PrsmSu:  NPrtUS=   1 ThrOK=F IAlg=1 NPAlg=1 LenDen=           0.
 Prism:   IPart=     0 DynPar=F LinDyn=F Incr=          34.
 PRISM was handed   419149117 working-precision words and  3403 shell-pairs
 IPart=  0 NShTot=        3403 NBatch=          44 AvBLen=        77.3
 PrSmSu:  NxtVal=             35.
 Entering OneElI...
 Calculate overlap and kinetic energy integrals
    NBasis = 260  MinDer = 1  MaxDer = 1
 Requested accuracy = 0.1000D-12
 PrsmSu:  NPrtUS=  32 ThrOK=T IAlg=1 NPAlg=1 LenDen=           0.
 Prism:   IPart=     0 DynPar=F LinDyn=F Incr=           1.
 PRISM was handed    13041464 working-precision words and  3403 shell-pairs
 PRISM was handed    13041464 working-precision words and  3403 shell-pairs
 PRISM was handed    13041464 working-precision words and  3403 shell-pairs
 PRISM was handed    13041464 working-precision words and  3403 shell-pairs
 PRISM was handed    13041464 working-precision words and  3403 shell-pairs
 PRISM was handed    13041464 working-precision words and  3403 shell-pairs
 PRISM was handed    13041464 working-precision words and  3403 shell-pairs
 PRISM was handed    13041464 working-precision words and  3403 shell-pairs
 PRISM was handed    13041464 working-precision words and  3403 shell-pairs
 PRISM was handed    13041464 working-precision words and  3403 shell-pairs
 PRISM was handed    13041464 working-precision words and  3403 shell-pairs
 PRISM was handed    13041464 working-precision words and  3403 shell-pairs
 PRISM was handed    13041464 working-precision words and  3403 shell-pairs
 PRISM was handed    13041464 working-precision words and  3403 shell-pairs
 PRISM was handed    13041464 working-precision words and  3403 shell-pairs
 PRISM was handed    13041464 working-precision words and  3403 shell-pairs
 PRISM was handed    13041464 working-precision words and  3403 shell-pairs
 PRISM was handed    13041464 working-precision words and  3403 shell-pairs
 PRISM was handed    13041464 working-precision words and  3403 shell-pairs
 PRISM was handed    13041464 working-precision words and  3403 shell-pairs
 PRISM was handed    13041464 working-precision words and  3403 shell-pairs
 PRISM was handed    13041464 working-precision words and  3403 shell-pairs
 PRISM was handed    13041464 working-precision words and  3403 shell-pairs
 PRISM was handed    13041464 working-precision words and  3403 shell-pairs
 PRISM was handed    13041464 working-precision words and  3403 shell-pairs
 PRISM was handed    13041464 working-precision words and  3403 shell-pairs
 PRISM was handed    13041464 working-precision words and  3403 shell-pairs
 PRISM was handed    13041464 working-precision words and  3403 shell-pairs
 PRISM was handed    13041464 working-precision words and  3403 shell-pairs
 PRISM was handed    13041464 working-precision words and  3403 shell-pairs
 PRISM was handed    13041464 working-precision words and  3403 shell-pairs
 PRISM was handed    13041464 working-precision words and  3403 shell-pairs
 IPart=  0 NShTot=         136 NBatch=          44 AvBLen=         3.1
 IPart= 17 NShTot=          98 NBatch=          22 AvBLen=         4.5
 IPart= 27 NShTot=          95 NBatch=          20 AvBLen=         4.8
 IPart= 29 NShTot=          95 NBatch=          20 AvBLen=         4.8
 IPart=  6 NShTot=         116 NBatch=          27 AvBLen=         4.3
 IPart= 25 NShTot=          96 NBatch=          20 AvBLen=         4.8
 IPart=  3 NShTot=         125 NBatch=          33 AvBLen=         3.8
 IPart= 12 NShTot=         106 NBatch=          22 AvBLen=         4.8
 IPart= 31 NShTot=          95 NBatch=          20 AvBLen=         4.8
 IPart= 20 NShTot=          97 NBatch=          21 AvBLen=         4.6
 IPart=  2 NShTot=         126 NBatch=          34 AvBLen=         3.7
 IPart=  8 NShTot=         112 NBatch=          24 AvBLen=         4.7
 IPart= 16 NShTot=          98 NBatch=          22 AvBLen=         4.5
 IPart= 18 NShTot=          97 NBatch=          21 AvBLen=         4.6
 IPart= 21 NShTot=          97 NBatch=          21 AvBLen=         4.6
 IPart= 10 NShTot=         110 NBatch=          22 AvBLen=         5.0
 IPart= 22 NShTot=          97 NBatch=          21 AvBLen=         4.6
 IPart=  4 NShTot=         122 NBatch=          33 AvBLen=         3.7
 IPart= 28 NShTot=          95 NBatch=          20 AvBLen=         4.8
 IPart= 26 NShTot=          95 NBatch=          20 AvBLen=         4.8
 IPart= 24 NShTot=          96 NBatch=          20 AvBLen=         4.8
 IPart= 30 NShTot=          95 NBatch=          20 AvBLen=         4.8
 IPart= 13 NShTot=         106 NBatch=          22 AvBLen=         4.8
 IPart= 14 NShTot=         106 NBatch=          22 AvBLen=         4.8
 IPart= 15 NShTot=         106 NBatch=          22 AvBLen=         4.8
 IPart=  9 NShTot=         111 NBatch=          23 AvBLen=         4.8
 IPart= 23 NShTot=          97 NBatch=          21 AvBLen=         4.6
 IPart= 19 NShTot=          97 NBatch=          21 AvBLen=         4.6
 IPart=  7 NShTot=         116 NBatch=          27 AvBLen=         4.3
 IPart=  1 NShTot=         134 NBatch=          42 AvBLen=         3.2
 IPart= 11 NShTot=         109 NBatch=          22 AvBLen=         5.0
 IPart=  5 NShTot=         122 NBatch=          33 AvBLen=         3.7
 PrSmSu:  NxtVal=             33.
 Entering OneElI...
 Calculate potential energy integrals
    NBasis = 260  MinDer = 1  MaxDer = 1
 Requested accuracy = 0.1000D-12
 PrsmSu:  NPrtUS=  32 ThrOK=T IAlg=1 NPAlg=1 LenDen=           0.
 Prism:   IPart=     0 DynPar=F LinDyn=F Incr=           8.
 PRISM was handed    13046915 working-precision words and  3382 shell-pairs
 PRISM was handed    13046915 working-precision words and  3382 shell-pairs
 PRISM was handed    13046915 working-precision words and  3382 shell-pairs
 PRISM was handed    13046915 working-precision words and  3382 shell-pairs
 PRISM was handed    13046915 working-precision words and  3382 shell-pairs
 PRISM was handed    13046915 working-precision words and  3382 shell-pairs
 PRISM was handed    13046915 working-precision words and  3382 shell-pairs
 PRISM was handed    13046915 working-precision words and  3382 shell-pairs
 PRISM was handed    13046915 working-precision words and  3382 shell-pairs
 PRISM was handed    13046915 working-precision words and  3382 shell-pairs
 PRISM was handed    13046915 working-precision words and  3382 shell-pairs
 PRISM was handed    13046915 working-precision words and  3382 shell-pairs
 PRISM was handed    13046915 working-precision words and  3382 shell-pairs
 PRISM was handed    13046915 working-precision words and  3382 shell-pairs
 PRISM was handed    13046915 working-precision words and  3382 shell-pairs
 PRISM was handed    13046915 working-precision words and  3382 shell-pairs
 PRISM was handed    13046915 working-precision words and  3382 shell-pairs
 PRISM was handed    13046915 working-precision words and  3382 shell-pairs
 PRISM was handed    13046915 working-precision words and  3382 shell-pairs
 PRISM was handed    13046915 working-precision words and  3382 shell-pairs
 PRISM was handed    13046915 working-precision words and  3382 shell-pairs
 PRISM was handed    13046915 working-precision words and  3382 shell-pairs
 PRISM was handed    13046915 working-precision words and  3382 shell-pairs
 PRISM was handed    13046915 working-precision words and  3382 shell-pairs
 PRISM was handed    13046915 working-precision words and  3382 shell-pairs
 PRISM was handed    13046915 working-precision words and  3382 shell-pairs
 PRISM was handed    13046915 working-precision words and  3382 shell-pairs
 PRISM was handed    13046915 working-precision words and  3382 shell-pairs
 PRISM was handed    13046915 working-precision words and  3382 shell-pairs
 PRISM was handed    13046915 working-precision words and  3382 shell-pairs
 PRISM was handed    13046915 working-precision words and  3382 shell-pairs
 PRISM was handed    13046915 working-precision words and  3382 shell-pairs
 IPart= 23 NShTot=         784 NBatch=          98 AvBLen=         8.0
 IPart= 11 NShTot=         840 NBatch=         105 AvBLen=         8.0
 IPart= 24 NShTot=         768 NBatch=          96 AvBLen=         8.0
 IPart= 30 NShTot=         744 NBatch=          93 AvBLen=         8.0
 IPart= 26 NShTot=         760 NBatch=          95 AvBLen=         8.0
 IPart= 19 NShTot=         792 NBatch=          99 AvBLen=         8.0
 IPart= 28 NShTot=         760 NBatch=          95 AvBLen=         8.0
 IPart=  7 NShTot=         928 NBatch=         116 AvBLen=         8.0
 IPart=  1 NShTot=        1048 NBatch=         131 AvBLen=         8.0
 IPart=  9 NShTot=         880 NBatch=         110 AvBLen=         8.0
 IPart= 14 NShTot=         816 NBatch=         102 AvBLen=         8.0
 IPart=  5 NShTot=         984 NBatch=         123 AvBLen=         8.0
 IPart= 17 NShTot=         808 NBatch=         101 AvBLen=         8.0
 IPart= 13 NShTot=         824 NBatch=         103 AvBLen=         8.0
 IPart= 15 NShTot=         816 NBatch=         102 AvBLen=         8.0
 IPart= 31 NShTot=         744 NBatch=          93 AvBLen=         8.0
 IPart=  3 NShTot=         992 NBatch=         124 AvBLen=         8.0
 IPart= 16 NShTot=         808 NBatch=         101 AvBLen=         8.0
 IPart= 10 NShTot=         848 NBatch=         106 AvBLen=         8.0
 IPart= 25 NShTot=         768 NBatch=          96 AvBLen=         8.0
 IPart= 21 NShTot=         784 NBatch=          98 AvBLen=         8.0
 IPart= 27 NShTot=         760 NBatch=          95 AvBLen=         8.0
 IPart= 12 NShTot=         824 NBatch=         103 AvBLen=         8.0
 IPart= 18 NShTot=         792 NBatch=          99 AvBLen=         8.0
 IPart= 22 NShTot=         784 NBatch=          98 AvBLen=         8.0
 IPart= 20 NShTot=         784 NBatch=          98 AvBLen=         8.0
 IPart=  8 NShTot=         888 NBatch=         111 AvBLen=         8.0
 IPart= 29 NShTot=         760 NBatch=          95 AvBLen=         8.0
 IPart=  4 NShTot=         984 NBatch=         123 AvBLen=         8.0
 IPart=  0 NShTot=        1064 NBatch=         133 AvBLen=         8.0
 IPart=  6 NShTot=         928 NBatch=         116 AvBLen=         8.0
 IPart=  2 NShTot=         992 NBatch=         124 AvBLen=         8.0
 PrSmSu:  NxtVal=            257.
 l701 out
 I=    0 X=   2.923114217368D-05 Y=  -1.361518371601D-05 Z=   4.620212505912D-07
 I=    1 X=   5.562350065235D-01 Y=   1.171151486805D+00 Z=   3.700249711195D-01
 I=    2 X=   7.220652197205D-02 Y=   1.519015031834D-01 Z=   3.118499592395D+00
 I=    3 X=   2.901922648564D+00 Y=   1.514990060691D-01 Z=  -1.142118380732D+00
 I=    4 X=  -1.717302975321D+00 Y=   2.344632082310D+00 Z=  -1.142258577260D+00
 I=    5 X=  -5.571955816311D-01 Y=  -1.171003032384D+00 Z=  -3.690381836697D-01
 I=    6 X=  -2.902525833666D+00 Y=  -1.508132896897D-01 Z=   1.141262727162D+00
 I=    7 X=   1.717750490206D+00 Y=  -2.344391927960D+00 Z=   1.141936624058D+00
 I=    8 X=  -7.109027664741D-02 Y=  -1.529758283339D-01 Z=  -3.118308773073D+00
 ICntrl=      2127.
 Calling FoFJK, ICntrl=      2127 FMM=F ISym2X=0 I1Cent= 0 IOpClX= 1 NMat=1 NMatS=1 NMatT=0.
 FoFJK:  IHMeth= 1 ICntrl=    2127 DoSepK=T KAlg= 0 I1Cent=   0 FoldK=F
 IRaf=         1 NMat=   1 IRICut=       1 DoRegI=T DoRafI=F ISym2E= 0.
 FoFCou: FMM=F IPFlag=           0 FMFlag=      100000 FMFlg1=         800
         NFxFlg=           0 DoJE=F BraDBF=F KetDBF=F FulRan=T
         wScrn=  0.000000 ICntrl=    2527 IOpCl=  0 I1Cent=           0 NGrid=           0
         NMat0=    1 NMatS0=      1 NMatT0=    0 NMatD0=    1 NMtDS0=    0 NMtDT0=    0
 Symmetry not used in FoFCou.
 FoFCou:  KetSym=F NOpSet=  1 NOpAb=1 NOp=  1.
 FoFCou:  CnvScl= 1.00D+00 Thresh= 1.00D-10 IAcrcy=      10.
 PrismS was handed   419078769 working-precision words and  3402 shell-pairs
 FoFCou: LinMIO=F DoNuc=F BraDBF=F KetDBF=F HaveP=T PDBF=F HaveZ=T HaveW=F
         NIJTC =      10 NIJTAt=       0 NIJTCD=       0 NIJTT =      10
         IJTBeg=       1 IJTEnd=      10 KLTBeg=       1 KLTEnd=      10
         IPTBeg=       1 IPTEnd=      10 IPTBCv=       1 IPTECv=      10
         IZTBeg=       1 IZTEnd=      10 IZTBCv=       1 IZTECv=      10
         IWTBeg=      11 IWTEnd=      10 IWTBCv=      11 IWTECv=      10
         INTBeg=       1 INTEnd=       0 IFTBCv=       1 IFTECv=      10
 NCel replicated for PrismC:     1
 CoulSu:  IncDef=  1024 NBBP=        5788503 NTPThr=   100 NPartT=   32 Incr=        1024 LDynOK=F.
 CoulSu:  NPrtUS=  32 ThrOK=T IAlg=1 NPAlg=1 LenDen=           0 LWGrdD=           0 DoCopy=F.
 Enter PrismC: JobTyp=21 DoJE=F Cont=F.
 PrismC:  IPart=     0 DynPar=T LinDyn=F Incr=        1024 UseFst=F UseS4=T IGathr=2.
 PrismC was handed    13043678 working-precision words and  3402 shell-pairs
 Enter PrismC: JobTyp=21 DoJE=F Cont=F.
 Enter PrismC: JobTyp=21 DoJE=F Cont=F.
 Enter PrismC: JobTyp=21 DoJE=F Cont=F.
 Enter PrismC: JobTyp=21 DoJE=F Cont=F.
 Enter PrismC: JobTyp=21 DoJE=F Cont=F.
 Enter PrismC: JobTyp=21 DoJE=F Cont=F.
 Enter PrismC: JobTyp=21 DoJE=F Cont=F.
 Enter PrismC: JobTyp=21 DoJE=F Cont=F.
 Enter PrismC: JobTyp=21 DoJE=F Cont=F.
 Enter PrismC: JobTyp=21 DoJE=F Cont=F.
 Enter PrismC: JobTyp=21 DoJE=F Cont=F.
 Enter PrismC: JobTyp=21 DoJE=F Cont=F.
 Enter PrismC: JobTyp=21 DoJE=F Cont=F.
 Enter PrismC: JobTyp=21 DoJE=F Cont=F.
 Enter PrismC: JobTyp=21 DoJE=F Cont=F.
 Enter PrismC: JobTyp=21 DoJE=F Cont=F.
 Enter PrismC: JobTyp=21 DoJE=F Cont=F.
 Enter PrismC: JobTyp=21 DoJE=F Cont=F.
 Enter PrismC: JobTyp=21 DoJE=F Cont=F.
 Enter PrismC: JobTyp=21 DoJE=F Cont=F.
 Enter PrismC: JobTyp=21 DoJE=F Cont=F.
 Enter PrismC: JobTyp=21 DoJE=F Cont=F.
 PrismC was handed    13043678 working-precision words and  3402 shell-pairs
 Enter PrismC: JobTyp=21 DoJE=F Cont=F.
 PrismC was handed    13043678 working-precision words and  3402 shell-pairs
 Enter PrismC: JobTyp=21 DoJE=F Cont=F.
 PrismC was handed    13043678 working-precision words and  3402 shell-pairs
 Enter PrismC: JobTyp=21 DoJE=F Cont=F.
 PrismC was handed    13043678 working-precision words and  3402 shell-pairs
 Enter PrismC: JobTyp=21 DoJE=F Cont=F.
 PrismC was handed    13043678 working-precision words and  3402 shell-pairs
 Enter PrismC: JobTyp=21 DoJE=F Cont=F.
 PrismC was handed    13043678 working-precision words and  3402 shell-pairs
 Enter PrismC: JobTyp=21 DoJE=F Cont=F.
 PrismC was handed    13043678 working-precision words and  3402 shell-pairs
 Enter PrismC: JobTyp=21 DoJE=F Cont=F.
 PrismC was handed    13043678 working-precision words and  3402 shell-pairs
 Enter PrismC: JobTyp=21 DoJE=F Cont=F.
 PrismC was handed    13043678 working-precision words and  3402 shell-pairs
 Enter PrismC: JobTyp=21 DoJE=F Cont=F.
 PrismC was handed    13043678 working-precision words and  3402 shell-pairs
 PrismC was handed    13043678 working-precision words and  3402 shell-pairs
 PrismC was handed    13043678 working-precision words and  3402 shell-pairs
 PrismC was handed    13043678 working-precision words and  3402 shell-pairs
 PrismC was handed    13043678 working-precision words and  3402 shell-pairs
 PrismC was handed    13043678 working-precision words and  3402 shell-pairs
 PrismC was handed    13043678 working-precision words and  3402 shell-pairs
 PrismC was handed    13043678 working-precision words and  3402 shell-pairs
 PrismC was handed    13043678 working-precision words and  3402 shell-pairs
 PrismC was handed    13043678 working-precision words and  3402 shell-pairs
 PrismC was handed    13043678 working-precision words and  3402 shell-pairs
 PrismC was handed    13043678 working-precision words and  3402 shell-pairs
 PrismC was handed    13043678 working-precision words and  3402 shell-pairs
 PrismC was handed    13043678 working-precision words and  3402 shell-pairs
 PrismC was handed    13043678 working-precision words and  3402 shell-pairs
 PrismC was handed    13043678 working-precision words and  3402 shell-pairs
 PrismC was handed    13043678 working-precision words and  3402 shell-pairs
 PrismC was handed    13043678 working-precision words and  3402 shell-pairs
 PrismC was handed    13043678 working-precision words and  3402 shell-pairs
 PrismC was handed    13043678 working-precision words and  3402 shell-pairs
 PrismC was handed    13043678 working-precision words and  3402 shell-pairs
 PrismC was handed    13043678 working-precision words and  3402 shell-pairs
 IPart= 10 NShTot=      164577 NShNF=      164577 NShFF=           0 NBatch=        1548 AvBLen=       106.3
 IPart= 30 NShTot=      158046 NShNF=      158046 NShFF=           0 NBatch=        1343 AvBLen=       117.7
 IPart= 17 NShTot=      169064 NShNF=      169064 NShFF=           0 NBatch=        1546 AvBLen=       109.4
 IPart=  5 NShTot=      182051 NShNF=      182051 NShFF=           0 NBatch=        1250 AvBLen=       145.6
 IPart= 26 NShTot=      164440 NShNF=      164440 NShFF=           0 NBatch=        1318 AvBLen=       124.8
 IPart= 21 NShTot=      159909 NShNF=      159909 NShFF=           0 NBatch=        1562 AvBLen=       102.4
 IPart= 23 NShTot=      177982 NShNF=      177982 NShFF=           0 NBatch=        1530 AvBLen=       116.3
 IPart=  8 NShTot=      180037 NShNF=      180037 NShFF=           0 NBatch=        1553 AvBLen=       115.9
 IPart= 15 NShTot=      152460 NShNF=      152460 NShFF=           0 NBatch=        1242 AvBLen=       122.8
 IPart= 25 NShTot=      176212 NShNF=      176212 NShFF=           0 NBatch=        1565 AvBLen=       112.6
 IPart= 22 NShTot=      168115 NShNF=      168115 NShFF=           0 NBatch=        1575 AvBLen=       106.7
 IPart=  0 NShTot=      170550 NShNF=      170550 NShFF=           0 NBatch=        1196 AvBLen=       142.6
 IPart=  4 NShTot=      177046 NShNF=      177046 NShFF=           0 NBatch=        1540 AvBLen=       115.0
 IPart= 16 NShTot=      167964 NShNF=      167964 NShFF=           0 NBatch=        1552 AvBLen=       108.2
 IPart= 11 NShTot=      160186 NShNF=      160186 NShFF=           0 NBatch=        1564 AvBLen=       102.4
 IPart= 18 NShTot=      160751 NShNF=      160751 NShFF=           0 NBatch=        1563 AvBLen=       102.8
 IPart= 27 NShTot=      174246 NShNF=      174246 NShFF=           0 NBatch=        1570 AvBLen=       111.0
 IPart= 19 NShTot=      169801 NShNF=      169801 NShFF=           0 NBatch=        1595 AvBLen=       106.5
 IPart=  1 NShTot=      168874 NShNF=      168874 NShFF=           0 NBatch=        1420 AvBLen=       118.9
 IPart=  2 NShTot=      163561 NShNF=      163561 NShFF=           0 NBatch=        1560 AvBLen=       104.8
 IPart=  9 NShTot=      168275 NShNF=      168275 NShFF=           0 NBatch=        1523 AvBLen=       110.5
 IPart= 29 NShTot=      163396 NShNF=      163396 NShFF=           0 NBatch=        1531 AvBLen=       106.7
 IPart=  6 NShTot=      172335 NShNF=      172335 NShFF=           0 NBatch=        1586 AvBLen=       108.7
 IPart= 28 NShTot=      178220 NShNF=      178220 NShFF=           0 NBatch=        1453 AvBLen=       122.7
 IPart=  7 NShTot=      165900 NShNF=      165900 NShFF=           0 NBatch=        1535 AvBLen=       108.1
 IPart= 31 NShTot=      165345 NShNF=      165345 NShFF=           0 NBatch=        1408 AvBLen=       117.4
 IPart= 12 NShTot=      156159 NShNF=      156159 NShFF=           0 NBatch=        1553 AvBLen=       100.6
 IPart= 14 NShTot=      163547 NShNF=      163547 NShFF=           0 NBatch=        1588 AvBLen=       103.0
 IPart= 20 NShTot=      168187 NShNF=      168187 NShFF=           0 NBatch=        1239 AvBLen=       135.7
 IPart=  3 NShTot=      159846 NShNF=      159846 NShFF=           0 NBatch=        1415 AvBLen=       113.0
 IPart= 24 NShTot=      173299 NShNF=      173299 NShFF=           0 NBatch=        1549 AvBLen=       111.9
 IPart= 13 NShTot=      159453 NShNF=      159453 NShFF=           0 NBatch=        1514 AvBLen=       105.3
 CoulSu:  NxtVal=        6345729.
 FoFCou: FMM=F IPFlag=           0 FMFlag=      100000 FMFlg1=         800
         NFxFlg=           0 DoJE=F BraDBF=F KetDBF=F FulRan=T
         wScrn=  0.000000 ICntrl=    2127 IOpCl=  1 I1Cent=           0 NGrid=           0
         NMat0=    1 NMatS0=      0 NMatT0=    1 NMatD0=    1 NMtDS0=    0 NMtDT0=    0
         CW=    0.222036    0.777964
         WU=    0.000000   12.500000
 Symmetry not used in FoFCou.
 FoFCou:  KetSym=F NOpSet=  1 NOpAb=1 NOp=  1.
 FoFCou:  CnvScl= 1.00D+00 Thresh= 1.00D-10 IAcrcy=      10.
 PrismS was handed   419075422 working-precision words and  3402 shell-pairs
 FoFCou: LinMIO=F DoNuc=F BraDBF=F KetDBF=F HaveP=T PDBF=F HaveZ=T HaveW=F
         NIJTC =      10 NIJTAt=       0 NIJTCD=       0 NIJTT =      10
         IJTBeg=       1 IJTEnd=      10 KLTBeg=       1 KLTEnd=      10
         IPTBeg=       1 IPTEnd=      10 IPTBCv=       1 IPTECv=      10
         IZTBeg=       1 IZTEnd=      10 IZTBCv=       1 IZTECv=      10
         IWTBeg=      11 IWTEnd=      10 IWTBCv=      11 IWTECv=      10
         INTBeg=       1 INTEnd=       0 IFTBCv=       1 IFTECv=      10
 NCel replicated for PrismC:     1
 CoulSu:  IncDef=  1024 NBBP=        5788503 NTPThr=   100 NPartT=   32 Incr=        1024 LDynOK=F.
 CoulSu:  NPrtUS=  32 ThrOK=T IAlg=1 NPAlg=1 LenDen=           0 LWGrdD=           0 DoCopy=F.
 Enter PrismC: JobTyp=21 DoJE=F Cont=F.
 Linear combination for Coulomb/exchange, wScrn=  0.000000
 CW=    0.222036    0.777964
 WU=    0.000000   12.500000
 PrismC:  IPart=     0 DynPar=T LinDyn=F Incr=        1024 UseFst=F UseS4=T IGathr=2.
 PrismC was handed    13043573 working-precision words and  3402 shell-pairs
 Enter PrismC: JobTyp=21 DoJE=F Cont=F.
 Enter PrismC: JobTyp=21 DoJE=F Cont=F.
 Enter PrismC: JobTyp=21 DoJE=F Cont=F.
 Linear combination for Coulomb/exchange, wScrn=  0.000000
 CW=    0.222036    0.777964
 WU=    0.000000   12.500000
 Enter PrismC: JobTyp=21 DoJE=F Cont=F.
 Linear combination for Coulomb/exchange, wScrn=  0.000000
 CW=    0.222036    0.777964
 WU=    0.000000   12.500000
 Enter PrismC: JobTyp=21 DoJE=F Cont=F.
 Linear combination for Coulomb/exchange, wScrn=  0.000000
 CW=    0.222036    0.777964
 WU=    0.000000   12.500000
 PrismC was handed    13043573 working-precision words and  3402 shell-pairs
 Enter PrismC: JobTyp=21 DoJE=F Cont=F.
 Linear combination for Coulomb/exchange, wScrn=  0.000000
 CW=    0.222036    0.777964
 WU=    0.000000   12.500000
 PrismC was handed    13043573 working-precision words and  3402 shell-pairs
 Enter PrismC: JobTyp=21 DoJE=F Cont=F.
 Linear combination for Coulomb/exchange, wScrn=  0.000000
 CW=    0.222036    0.777964
 WU=    0.000000   12.500000
 Enter PrismC: JobTyp=21 DoJE=F Cont=F.
 Linear combination for Coulomb/exchange, wScrn=  0.000000
 CW=    0.222036    0.777964
 WU=    0.000000   12.500000
 PrismC was handed    13043573 working-precision words and  3402 shell-pairs
 Enter PrismC: JobTyp=21 DoJE=F Cont=F.
 Linear combination for Coulomb/exchange, wScrn=  0.000000
 CW=    0.222036    0.777964
 WU=    0.000000   12.500000
 Enter PrismC: JobTyp=21 DoJE=F Cont=F.
 Linear combination for Coulomb/exchange, wScrn=  0.000000
 CW=    0.222036    0.777964
 WU=    0.000000   12.500000
 Enter PrismC: JobTyp=21 DoJE=F Cont=F.
 Linear combination for Coulomb/exchange, wScrn=  0.000000
 CW=    0.222036    0.777964
 WU=    0.000000   12.500000
 Enter PrismC: JobTyp=21 DoJE=F Cont=F.
 Linear combination for Coulomb/exchange, wScrn=  0.000000
 CW=    0.222036    0.777964
 WU=    0.000000   12.500000
 Enter PrismC: JobTyp=21 DoJE=F Cont=F.
 Linear combination for Coulomb/exchange, wScrn=  0.000000
 CW=    0.222036    0.777964
 WU=    0.000000   12.500000
 Enter PrismC: JobTyp=21 DoJE=F Cont=F.
 Linear combination for Coulomb/exchange, wScrn=  0.000000
 CW=    0.222036    0.777964
 WU=    0.000000   12.500000
 Enter PrismC: JobTyp=21 DoJE=F Cont=F.
 Linear combination for Coulomb/exchange, wScrn=  0.000000
 CW=    0.222036    0.777964
 WU=    0.000000   12.500000
 Enter PrismC: JobTyp=21 DoJE=F Cont=F.
 Linear combination for Coulomb/exchange, wScrn=  0.000000
 CW=    0.222036    0.777964
 WU=    0.000000   12.500000
 Enter PrismC: JobTyp=21 DoJE=F Cont=F.
 Linear combination for Coulomb/exchange, wScrn=  0.000000
 CW=    0.222036    0.777964
 WU=    0.000000   12.500000
 Enter PrismC: JobTyp=21 DoJE=F Cont=F.
 Linear combination for Coulomb/exchange, wScrn=  0.000000
 CW=    0.222036    0.777964
 WU=    0.000000   12.500000
 Enter PrismC: JobTyp=21 DoJE=F Cont=F.
 Linear combination for Coulomb/exchange, wScrn=  0.000000
 CW=    0.222036    0.777964
 WU=    0.000000   12.500000
 Enter PrismC: JobTyp=21 DoJE=F Cont=F.
 Linear combination for Coulomb/exchange, wScrn=  0.000000
 CW=    0.222036    0.777964
 WU=    0.000000   12.500000
 Enter PrismC: JobTyp=21 DoJE=F Cont=F.
 Linear combination for Coulomb/exchange, wScrn=  0.000000
 CW=    0.222036    0.777964
 WU=    0.000000   12.500000
 Enter PrismC: JobTyp=21 DoJE=F Cont=F.
 Linear combination for Coulomb/exchange, wScrn=  0.000000
 CW=    0.222036    0.777964
 WU=    0.000000   12.500000
 Enter PrismC: JobTyp=21 DoJE=F Cont=F.
 Linear combination for Coulomb/exchange, wScrn=  0.000000
 CW=    0.222036    0.777964
 WU=    0.000000   12.500000
 Enter PrismC: JobTyp=21 DoJE=F Cont=F.
 Linear combination for Coulomb/exchange, wScrn=  0.000000
 CW=    0.222036    0.777964
 WU=    0.000000   12.500000
 Enter PrismC: JobTyp=21 DoJE=F Cont=F.
 Linear combination for Coulomb/exchange, wScrn=  0.000000
 CW=    0.222036    0.777964
 WU=    0.000000   12.500000
 Enter PrismC: JobTyp=21 DoJE=F Cont=F.
 Linear combination for Coulomb/exchange, wScrn=  0.000000
 CW=    0.222036    0.777964
 WU=    0.000000   12.500000
 Enter PrismC: JobTyp=21 DoJE=F Cont=F.
 Linear combination for Coulomb/exchange, wScrn=  0.000000
 CW=    0.222036    0.777964
 WU=    0.000000   12.500000
 Linear combination for Coulomb/exchange, wScrn=  0.000000
 CW=    0.222036    0.777964
 WU=    0.000000   12.500000
 PrismC was handed    13043573 working-precision words and  3402 shell-pairs
 Enter PrismC: JobTyp=21 DoJE=F Cont=F.
 Linear combination for Coulomb/exchange, wScrn=  0.000000
 CW=    0.222036    0.777964
 WU=    0.000000   12.500000
 Linear combination for Coulomb/exchange, wScrn=  0.000000
 CW=    0.222036    0.777964
 WU=    0.000000   12.500000
 PrismC was handed    13043573 working-precision words and  3402 shell-pairs
 PrismC was handed    13043573 working-precision words and  3402 shell-pairs
 PrismC was handed    13043573 working-precision words and  3402 shell-pairs
 PrismC was handed    13043573 working-precision words and  3402 shell-pairs
 PrismC was handed    13043573 working-precision words and  3402 shell-pairs
 PrismC was handed    13043573 working-precision words and  3402 shell-pairs
 PrismC was handed    13043573 working-precision words and  3402 shell-pairs
 PrismC was handed    13043573 working-precision words and  3402 shell-pairs
 PrismC was handed    13043573 working-precision words and  3402 shell-pairs
 Enter PrismC: JobTyp=21 DoJE=F Cont=F.
 Linear combination for Coulomb/exchange, wScrn=  0.000000
 CW=    0.222036    0.777964
 WU=    0.000000   12.500000
 Enter PrismC: JobTyp=21 DoJE=F Cont=F.
 Linear combination for Coulomb/exchange, wScrn=  0.000000
 CW=    0.222036    0.777964
 WU=    0.000000   12.500000
 PrismC was handed    13043573 working-precision words and  3402 shell-pairs
 PrismC was handed    13043573 working-precision words and  3402 shell-pairs
 PrismC was handed    13043573 working-precision words and  3402 shell-pairs
 Enter PrismC: JobTyp=21 DoJE=F Cont=F.
 Linear combination for Coulomb/exchange, wScrn=  0.000000
 CW=    0.222036    0.777964
 WU=    0.000000   12.500000
 PrismC was handed    13043573 working-precision words and  3402 shell-pairs
 PrismC was handed    13043573 working-precision words and  3402 shell-pairs
 PrismC was handed    13043573 working-precision words and  3402 shell-pairs
 PrismC was handed    13043573 working-precision words and  3402 shell-pairs
 PrismC was handed    13043573 working-precision words and  3402 shell-pairs
 PrismC was handed    13043573 working-precision words and  3402 shell-pairs
 PrismC was handed    13043573 working-precision words and  3402 shell-pairs
 PrismC was handed    13043573 working-precision words and  3402 shell-pairs
 PrismC was handed    13043573 working-precision words and  3402 shell-pairs
 PrismC was handed    13043573 working-precision words and  3402 shell-pairs
 PrismC was handed    13043573 working-precision words and  3402 shell-pairs
 PrismC was handed    13043573 working-precision words and  3402 shell-pairs
 PrismC was handed    13043573 working-precision words and  3402 shell-pairs
 PrismC was handed    13043573 working-precision words and  3402 shell-pairs
 PrismC was handed    13043573 working-precision words and  3402 shell-pairs
 IPart= 10 NShTot=      169450 NShNF=      169450 NShFF=           0 NBatch=        1843 AvBLen=        91.9
 IPart= 29 NShTot=      169213 NShNF=      169213 NShFF=           0 NBatch=        1831 AvBLen=        92.4
 IPart= 16 NShTot=      159954 NShNF=      159954 NShFF=           0 NBatch=        1849 AvBLen=        86.5
 IPart=  1 NShTot=      180440 NShNF=      180440 NShFF=           0 NBatch=        1839 AvBLen=        98.1
 IPart= 26 NShTot=      180992 NShNF=      180992 NShFF=           0 NBatch=        1893 AvBLen=        95.6
 IPart= 30 NShTot=      163546 NShNF=      163546 NShFF=           0 NBatch=        1794 AvBLen=        91.2
 IPart=  7 NShTot=      166981 NShNF=      166981 NShFF=           0 NBatch=        1816 AvBLen=        91.9
 IPart=  2 NShTot=      167378 NShNF=      167378 NShFF=           0 NBatch=        1826 AvBLen=        91.7
 IPart= 20 NShTot=      150981 NShNF=      150981 NShFF=           0 NBatch=        1679 AvBLen=        89.9
 IPart= 15 NShTot=      166850 NShNF=      166850 NShFF=           0 NBatch=        1780 AvBLen=        93.7
 IPart= 25 NShTot=      181802 NShNF=      181802 NShFF=           0 NBatch=        1886 AvBLen=        96.4
 IPart=  6 NShTot=      167882 NShNF=      167882 NShFF=           0 NBatch=        1867 AvBLen=        89.9
 IPart= 31 NShTot=      173756 NShNF=      173756 NShFF=           0 NBatch=        1895 AvBLen=        91.7
 IPart= 22 NShTot=      163771 NShNF=      163771 NShFF=           0 NBatch=        1864 AvBLen=        87.9
 IPart=  3 NShTot=      169143 NShNF=      169143 NShFF=           0 NBatch=        1828 AvBLen=        92.5
 IPart= 24 NShTot=      166740 NShNF=      166740 NShFF=           0 NBatch=        1804 AvBLen=        92.4
 IPart= 11 NShTot=      165082 NShNF=      165082 NShFF=           0 NBatch=        1636 AvBLen=       100.9
 IPart= 17 NShTot=      179127 NShNF=      179127 NShFF=           0 NBatch=        1796 AvBLen=        99.7
 IPart=  0 NShTot=      151064 NShNF=      151064 NShFF=           0 NBatch=        1584 AvBLen=        95.4
 IPart=  9 NShTot=      169614 NShNF=      169614 NShFF=           0 NBatch=        1780 AvBLen=        95.3
 IPart= 21 NShTot=      153133 NShNF=      153133 NShFF=           0 NBatch=        1832 AvBLen=        83.6
 IPart= 14 NShTot=      184818 NShNF=      184818 NShFF=           0 NBatch=        1875 AvBLen=        98.6
 IPart=  8 NShTot=      181920 NShNF=      181920 NShFF=           0 NBatch=        1856 AvBLen=        98.0
 IPart= 28 NShTot=      163278 NShNF=      163278 NShFF=           0 NBatch=        1811 AvBLen=        90.2
 IPart= 27 NShTot=      154567 NShNF=      154567 NShFF=           0 NBatch=        1828 AvBLen=        84.6
 IPart= 18 NShTot=      156361 NShNF=      156361 NShFF=           0 NBatch=        1781 AvBLen=        87.8
 IPart= 13 NShTot=      162972 NShNF=      162972 NShFF=           0 NBatch=        1855 AvBLen=        87.9
 IPart=  5 NShTot=      172756 NShNF=      172756 NShFF=           0 NBatch=        1790 AvBLen=        96.5
 IPart= 12 NShTot=      169046 NShNF=      169046 NShFF=           0 NBatch=        1836 AvBLen=        92.1
 IPart= 23 NShTot=      160114 NShNF=      160114 NShFF=           0 NBatch=        1769 AvBLen=        90.5
 IPart= 19 NShTot=      171567 NShNF=      171567 NShFF=           0 NBatch=        1922 AvBLen=        89.3
 IPart=  4 NShTot=      165668 NShNF=      165668 NShFF=           0 NBatch=        1881 AvBLen=        88.1
 CoulSu:  NxtVal=        6345729.
 ReadGW:  IGet=0 IStart=           1 Next=           1 LGW=           0.
 Remaining memory in FofDFT      399.87 Mw
 CkSvGd:  ISavGI=        -1 IRadAn=       5 IRASav=       5 ISavGd=        -1.
 CalDSu:  NPrtUS=  32 ThrOK=T IAlg=1 NPAlg=2 DoDPD=T LenP=       33930 LenD1P=             0.
 IPart=  0 IRanGd=          0 ScrnBf=T ScrnGd=T RCrit=4.00D+00 DoMicB=T.
 IPart= 25         4759 of         5106 points in       6 batches and       27 microbatches, Max-NSigAt=       8 Max-NSgAt2=       8
 IPart=  9         6116 of         7272 points in       9 batches and       28 microbatches, Max-NSigAt=       8 Max-NSgAt2=       8
 IPart= 27         4447 of         4948 points in       6 batches and       35 microbatches, Max-NSigAt=       8 Max-NSgAt2=       8
 IPart= 11         5883 of         6764 points in       9 batches and       51 microbatches, Max-NSigAt=       8 Max-NSgAt2=       8
 IPart= 23         5092 of         5424 points in       6 batches and       13 microbatches, Max-NSigAt=       8 Max-NSgAt2=       8
 IPart= 13         4316 of         4748 points in       5 batches and       35 microbatches, Max-NSigAt=       8 Max-NSgAt2=       8
 IPart=  1         5885 of         6926 points in       8 batches and       31 microbatches, Max-NSigAt=       8 Max-NSgAt2=       8
 IPart= 19         5263 of         5956 points in       6 batches and       17 microbatches, Max-NSigAt=       8 Max-NSgAt2=       8
 IPart=  6         4697 of         4748 points in       4 batches and       12 microbatches, Max-NSigAt=       8 Max-NSgAt2=       8
 IPart=  0         5142 of         5748 points in       7 batches and       61 microbatches, Max-NSigAt=       8 Max-NSgAt2=       8
 IPart= 14         5048 of         5524 points in       6 batches and       26 microbatches, Max-NSigAt=       8 Max-NSgAt2=       8
 IPart=  5         4803 of         5324 points in       5 batches and       17 microbatches, Max-NSigAt=       8 Max-NSgAt2=       8
 IPart= 20         5734 of         6526 points in       8 batches and       58 microbatches, Max-NSigAt=       8 Max-NSgAt2=       8
 IPart= 22         5218 of         5570 points in       6 batches and       13 microbatches, Max-NSigAt=       8 Max-NSgAt2=       8
 IPart= 28         5505 of         6720 points in       9 batches and       49 microbatches, Max-NSigAt=       8 Max-NSgAt2=       8
 IPart= 29         5576 of         6526 points in       8 batches and       34 microbatches, Max-NSigAt=       8 Max-NSgAt2=       8
 IPart=  2         4924 of         5118 points in       5 batches and       29 microbatches, Max-NSigAt=       8 Max-NSgAt2=       8
 IPart= 24         5076 of         5524 points in       6 batches and       25 microbatches, Max-NSigAt=       8 Max-NSgAt2=       8
 IPart= 12         5389 of         5996 points in       7 batches and       28 microbatches, Max-NSigAt=       8 Max-NSgAt2=       8
 IPart=  7         5516 of         6656 points in       9 batches and       60 microbatches, Max-NSigAt=       8 Max-NSgAt2=       8
 IPart= 30         5240 of         5722 points in       6 batches and       24 microbatches, Max-NSigAt=       8 Max-NSgAt2=       8
 IPart= 21         5070 of         5352 points in       5 batches and       25 microbatches, Max-NSigAt=       8 Max-NSgAt2=       8
 IPart= 31         5015 of         5294 points in       5 batches and       23 microbatches, Max-NSigAt=       8 Max-NSgAt2=       8
 IPart=  4         5180 of         5380 points in       5 batches and       26 microbatches, Max-NSigAt=       8 Max-NSgAt2=       8
 IPart=  3         5430 of         5928 points in       6 batches and       29 microbatches, Max-NSigAt=       8 Max-NSgAt2=       8
 IPart= 18         5415 of         5956 points in       6 batches and       39 microbatches, Max-NSigAt=       8 Max-NSgAt2=       8
 IPart= 10         5191 of         5524 points in       6 batches and       33 microbatches, Max-NSigAt=       8 Max-NSgAt2=       8
 IPart=  8         5299 of         5696 points in       6 batches and       34 microbatches, Max-NSigAt=       8 Max-NSgAt2=       8
 IPart= 17         5293 of         5722 points in       7 batches and       35 microbatches, Max-NSigAt=       8 Max-NSgAt2=       8
 IPart= 26         5574 of         5894 points in       6 batches and       29 microbatches, Max-NSigAt=       8 Max-NSgAt2=       8
 IPart= 15         5704 of         6282 points in       7 batches and       44 microbatches, Max-NSigAt=       8 Max-NSgAt2=       8
 IPart= 16         4964 of         5338 points in       6 batches and       30 microbatches, Max-NSigAt=       8 Max-NSgAt2=       8
 Forces at end of L703
 I=    0 X=   2.923114217368D-05 Y=  -1.361518371601D-05 Z=   4.620212505912D-07
 I=    1 X=   2.250582415727D-02 Y=   4.742600925186D-02 Z=   1.506257726053D-02
 I=    2 X=   2.485534723324D-03 Y=   5.235262183844D-03 Z=   5.394732176969D-04
 I=    3 X=   1.509467301962D-03 Y=   5.260279284005D-03 Z=   2.040017804569D-03
 I=    4 X=   3.123450245557D-03 Y=   4.490521105582D-03 Z=   2.039541092873D-03
 I=    5 X=  -2.260271693911D-02 Y=  -4.742297991586D-02 Z=  -1.492588115810D-02
 I=    6 X=  -1.462462016204D-03 Y=  -5.238868353378D-03 Z=  -2.076396467884D-03
 I=    7 X=  -3.093228608229D-03 Y=  -4.489043532797D-03 Z=  -2.082444648569D-03
 I=    8 X=  -2.465868864578D-03 Y=  -5.261180023242D-03 Z=  -5.968871010964D-04
 FrcOut:
 IF    =    45 IFX   =    69 IFXYZ =    93
 IFFX  =   117 IFFFX =   417 IFLen =    24
 IFFLen=   300 IFFFLn=     0 IEDerv=   417
 LEDerv=  1205 IFroze=  1904 ICStrt=108261
 FCEst1:  Generated internal coordinate force constants:
                1             2             3             4             5 
      1  0.601349D+00
      2 -0.123377D+00  0.399973D+00
      3 -0.389380D-01 -0.820253D-01  0.634349D+00
      4 -0.847531D-01  0.911022D-02 -0.616161D-02  0.623692D-01
      5  0.911019D-02 -0.698786D-01 -0.129829D-01 -0.427469D-02  0.553871D-01
      6  0.000000D+00  0.000000D+00 -0.355866D+00  0.000000D+00  0.000000D+00
      7 -0.317238D+00  0.352830D-02  0.977476D-01  0.149051D-01  0.131662D-03
      8 -0.843863D-02 -0.698452D-01  0.134231D-01  0.339699D-03  0.993723D-03
      9  0.915942D-01  0.839210D-02 -0.123254D+00  0.354521D-01  0.313161D-03
     10 -0.166332D+00  0.114708D+00 -0.514006D-01  0.632365D-02 -0.666321D-02
     11  0.126674D+00 -0.220751D+00  0.842207D-01 -0.687128D-02  0.957524D-02
     12 -0.514074D-01  0.762720D-01 -0.123252D+00 -0.221717D-01  0.276651D-01
     13 -0.393488D-01 -0.123951D-02 -0.384619D-03  0.115509D-02  0.169606D-02
     14 -0.124376D-02 -0.413632D-01 -0.823287D-03  0.169611D-02  0.392257D-02
     15 -0.387299D-03 -0.826115D-03 -0.390235D-01 -0.711891D-02 -0.149952D-01
     16 -0.237009D-02  0.658223D-03  0.148103D-02 -0.187469D-03  0.889986D-04
     17 -0.131684D-01  0.392752D-02  0.737110D-02  0.229746D-03 -0.109069D-03
     18 -0.563486D-02  0.156477D-02  0.352161D-02 -0.446413D-03  0.211929D-03
     19  0.753494D-02 -0.508285D-02  0.477582D-02 -0.296569D-03  0.140792D-03
     20  0.874114D-02 -0.598147D-02  0.580978D-02  0.000000D+00  0.000000D+00
     21  0.477353D-02 -0.337664D-02  0.352213D-02  0.446299D-03 -0.211874D-03
     22  0.115849D-02  0.169476D-02 -0.711973D-02  0.484074D-03 -0.229807D-03
     23  0.170232D-02  0.391893D-02 -0.149931D-01 -0.229885D-03  0.109135D-03
     24  0.000000D+00  0.000000D+00  0.279099D-05  0.000000D+00  0.000000D+00
                6             7             8             9            10 
      6  0.355866D+00
      7  0.000000D+00  0.311678D+00
      8  0.000000D+00 -0.165799D-02  0.553685D-01
      9  0.000000D+00 -0.104819D+00 -0.394354D-02  0.106435D+00
     10  0.000000D+00 -0.697604D-02  0.229214D-01 -0.165926D-01  0.159450D+00
     11  0.000000D+00 -0.265951D-02  0.955855D-02 -0.632568D-02 -0.125883D+00
     12  0.000000D+00  0.558960D-02 -0.168547D-01  0.132949D-01  0.632160D-01
     13  0.000000D+00 -0.236903D-02 -0.131645D-01 -0.563476D-02  0.753515D-02
     14  0.000000D+00  0.657514D-03  0.392444D-02  0.156390D-02 -0.508341D-02
     15  0.000000D+00  0.148168D-02  0.737506D-02  0.352420D-02  0.477726D-02
     16  0.000000D+00  0.726566D-04 -0.889783D-04  0.172814D-03  0.114864D-03
     17  0.000000D+00 -0.890413D-04  0.109044D-03 -0.211786D-03 -0.140767D-03
     18  0.000000D+00  0.173014D-03 -0.211881D-03  0.411516D-03  0.273522D-03
     19  0.000000D+00  0.114940D-03 -0.140760D-03  0.273386D-03  0.181711D-03
     20  0.000000D+00  0.000000D+00  0.000000D+00  0.000000D+00  0.000000D+00
     21  0.000000D+00 -0.172970D-03  0.211826D-03 -0.411411D-03 -0.273452D-03
     22  0.000000D+00 -0.187610D-03  0.229755D-03 -0.446233D-03 -0.296596D-03
     23  0.000000D+00  0.890955D-04 -0.109110D-03  0.211915D-03  0.140853D-03
     24  0.000000D+00  0.000000D+00  0.000000D+00  0.000000D+00  0.000000D+00
               11            12            13            14            15 
     11  0.207598D+00
     12 -0.837054D-01  0.106434D+00
     13  0.873940D-02  0.477348D-02  0.601568D+00
     14 -0.598083D-02 -0.337696D-02 -0.123428D+00  0.399932D+00
     15  0.581038D-02  0.352323D-02 -0.390139D-01 -0.818982D-01  0.634170D+00
     16  0.000000D+00 -0.172814D-03 -0.317403D+00  0.358251D-02  0.977262D-01
     17  0.000000D+00  0.211785D-03 -0.839067D-02 -0.698681D-01  0.133976D-01
     18  0.000000D+00 -0.411515D-03  0.915702D-01  0.836959D-02 -0.123229D+00
     19  0.000000D+00 -0.273385D-03 -0.166393D+00  0.114720D+00 -0.514021D-01
     20  0.000000D+00  0.000000D+00  0.126682D+00 -0.220718D+00  0.842156D-01
     21  0.000000D+00  0.411410D-03 -0.514004D-01  0.762617D-01 -0.123220D+00
     22  0.000000D+00  0.446231D-03 -0.847452D-01  0.909940D-02 -0.606291D-02
     23  0.000000D+00 -0.211914D-03  0.910571D-02 -0.698489D-01 -0.130790D-01
     24  0.000000D+00  0.000000D+00  0.899714D-04 -0.967594D-04 -0.355745D+00
               16            17            18            19            20 
     16  0.311845D+00
     17 -0.171349D-02  0.553820D-01
     18 -0.104795D+00 -0.391219D-02  0.106396D+00
     19 -0.696655D-02  0.229218D-01 -0.165972D-01  0.159499D+00
     20 -0.265754D-02  0.956468D-02 -0.633180D-02 -0.125896D+00  0.207565D+00
     21  0.558273D-02 -0.168562D-01  0.132995D-01  0.632190D-01 -0.836879D-01
     22  0.148942D-01  0.350800D-03  0.354567D-01  0.632499D-02 -0.686944D-02
     23  0.130321D-03  0.993893D-03  0.309687D-03 -0.666284D-02  0.956959D-02
     24  0.507412D-05  0.000000D+00  0.120795D-04  0.450198D-05 -0.570469D-05
               21            22            23            24 
     21  0.106416D+00
     22 -0.221747D-01  0.623676D-01
     23  0.276590D-01 -0.427558D-02  0.553665D-01
     24 -0.172857D-04 -0.993509D-04  0.103477D-03  0.355747D+00
 Quadrupole    =-7.46170925D-02 1.92187741D-01-1.17570648D-01
                 1.63601306D-01 5.10614091D-02 1.08605704D-01
 -------------------------------------------------------------------
 Center     Atomic                   Forces (Hartrees/Bohr)
 Number     Number              X              Y              Z
 -------------------------------------------------------------------
      1        6          -0.022505824   -0.047426009   -0.015062577
      2        1          -0.002485535   -0.005235262   -0.000539473
      3        1          -0.001509467   -0.005260279   -0.002040018
      4        1          -0.003123450   -0.004490521   -0.002039541
      5        6           0.022602717    0.047422980    0.014925881
      6        1           0.001462462    0.005238868    0.002076396
      7        1           0.003093229    0.004489044    0.002082445
      8        1           0.002465869    0.005261180    0.000596887
 -------------------------------------------------------------------
 Cartesian Forces:  Max     0.047426009 RMS     0.016032987
 From PutF, contents of force:
   1   -0.5394732177D-03
   2   -0.6008372780D-03
   3   -0.5962720938D-03
   4    0.5048350813D-02
   5    0.5043373747D-02
   6   -0.9926383285D-02
   7   -0.5430502324D-03
   8   -0.5955924573D-03
   9   -0.5978775760D-03
  10    0.5053406752D-02
  11    0.5048400003D-02
  12    0.9930266300D-02
  13    0.2821406737D-05
  14    0.1229955130D-04
  15   -0.2743055154D-05
  16    0.2242734218D-04
  17   -0.8711390215D-05
  18   -0.7183474208D-01
 -----------------------------------------------------------------------------------------------
                       Internal Coordinate Forces (Hartree/Bohr or radian)
  Cent   Atom   N1       Length/X         N2         Alpha/Y        N3         Beta/Z          J
 -----------------------------------------------------------------------------------------------
      1  C 
      2  H        1  -0.000539(     1)
      3  H        1  -0.000601(     2)      2   0.005048(     8)
      4  H        1  -0.000596(     3)      2   0.005043(     9)      3  -0.009926(    14)     0
      5  C        1  -0.071835(     4)      2  -0.000009(    10)      3   0.000022(    15)     0
      6  H        5  -0.000543(     5)      1   0.000003(    11)      2  -0.000003(    16)     0
      7  H        5  -0.000596(     6)      6   0.005053(    12)      1   0.000012(    17)     0
      8  H        5  -0.000598(     7)      6   0.005048(    13)      7   0.009930(    18)     0
 -----------------------------------------------------------------------------------------------
 Internal  Forces:  Max     0.071834742 RMS     0.017418594
 Force constants in Cartesian coordinates: 
                1             2             3             4             5 
      1  0.601349D+00
      2 -0.123377D+00  0.399973D+00
      3 -0.389380D-01 -0.820253D-01  0.634349D+00
      4 -0.847531D-01  0.911022D-02 -0.616161D-02  0.623692D-01
      5  0.911019D-02 -0.698786D-01 -0.129829D-01 -0.427469D-02  0.553871D-01
      6  0.000000D+00  0.000000D+00 -0.355866D+00  0.000000D+00  0.000000D+00
      7 -0.317238D+00  0.352830D-02  0.977476D-01  0.149051D-01  0.131662D-03
      8 -0.843863D-02 -0.698452D-01  0.134231D-01  0.339699D-03  0.993723D-03
      9  0.915942D-01  0.839210D-02 -0.123254D+00  0.354521D-01  0.313161D-03
     10 -0.166332D+00  0.114708D+00 -0.514006D-01  0.632365D-02 -0.666321D-02
     11  0.126674D+00 -0.220751D+00  0.842207D-01 -0.687128D-02  0.957524D-02
     12 -0.514074D-01  0.762720D-01 -0.123252D+00 -0.221717D-01  0.276651D-01
     13 -0.393488D-01 -0.123951D-02 -0.384619D-03  0.115509D-02  0.169606D-02
     14 -0.124376D-02 -0.413632D-01 -0.823287D-03  0.169611D-02  0.392257D-02
     15 -0.387299D-03 -0.826115D-03 -0.390235D-01 -0.711891D-02 -0.149952D-01
     16 -0.237009D-02  0.658223D-03  0.148103D-02 -0.187469D-03  0.889986D-04
     17 -0.131684D-01  0.392752D-02  0.737110D-02  0.229746D-03 -0.109069D-03
     18 -0.563486D-02  0.156477D-02  0.352161D-02 -0.446413D-03  0.211929D-03
     19  0.753494D-02 -0.508285D-02  0.477582D-02 -0.296569D-03  0.140792D-03
     20  0.874114D-02 -0.598147D-02  0.580978D-02  0.000000D+00  0.000000D+00
     21  0.477353D-02 -0.337664D-02  0.352213D-02  0.446299D-03 -0.211874D-03
     22  0.115849D-02  0.169476D-02 -0.711973D-02  0.484074D-03 -0.229807D-03
     23  0.170232D-02  0.391893D-02 -0.149931D-01 -0.229885D-03  0.109135D-03
     24  0.000000D+00  0.000000D+00  0.279099D-05  0.000000D+00  0.000000D+00
                6             7             8             9            10 
      6  0.355866D+00
      7  0.000000D+00  0.311678D+00
      8  0.000000D+00 -0.165799D-02  0.553685D-01
      9  0.000000D+00 -0.104819D+00 -0.394354D-02  0.106435D+00
     10  0.000000D+00 -0.697604D-02  0.229214D-01 -0.165926D-01  0.159450D+00
     11  0.000000D+00 -0.265951D-02  0.955855D-02 -0.632568D-02 -0.125883D+00
     12  0.000000D+00  0.558960D-02 -0.168547D-01  0.132949D-01  0.632160D-01
     13  0.000000D+00 -0.236903D-02 -0.131645D-01 -0.563476D-02  0.753515D-02
     14  0.000000D+00  0.657514D-03  0.392444D-02  0.156390D-02 -0.508341D-02
     15  0.000000D+00  0.148168D-02  0.737506D-02  0.352420D-02  0.477726D-02
     16  0.000000D+00  0.726566D-04 -0.889783D-04  0.172814D-03  0.114864D-03
     17  0.000000D+00 -0.890413D-04  0.109044D-03 -0.211786D-03 -0.140767D-03
     18  0.000000D+00  0.173014D-03 -0.211881D-03  0.411516D-03  0.273522D-03
     19  0.000000D+00  0.114940D-03 -0.140760D-03  0.273386D-03  0.181711D-03
     20  0.000000D+00  0.000000D+00  0.000000D+00  0.000000D+00  0.000000D+00
     21  0.000000D+00 -0.172970D-03  0.211826D-03 -0.411411D-03 -0.273452D-03
     22  0.000000D+00 -0.187610D-03  0.229755D-03 -0.446233D-03 -0.296596D-03
     23  0.000000D+00  0.890955D-04 -0.109110D-03  0.211915D-03  0.140853D-03
     24  0.000000D+00  0.000000D+00  0.000000D+00  0.000000D+00  0.000000D+00
               11            12            13            14            15 
     11  0.207598D+00
     12 -0.837054D-01  0.106434D+00
     13  0.873940D-02  0.477348D-02  0.601568D+00
     14 -0.598083D-02 -0.337696D-02 -0.123428D+00  0.399932D+00
     15  0.581038D-02  0.352323D-02 -0.390139D-01 -0.818982D-01  0.634170D+00
     16  0.000000D+00 -0.172814D-03 -0.317403D+00  0.358251D-02  0.977262D-01
     17  0.000000D+00  0.211785D-03 -0.839067D-02 -0.698681D-01  0.133976D-01
     18  0.000000D+00 -0.411515D-03  0.915702D-01  0.836959D-02 -0.123229D+00
     19  0.000000D+00 -0.273385D-03 -0.166393D+00  0.114720D+00 -0.514021D-01
     20  0.000000D+00  0.000000D+00  0.126682D+00 -0.220718D+00  0.842156D-01
     21  0.000000D+00  0.411410D-03 -0.514004D-01  0.762617D-01 -0.123220D+00
     22  0.000000D+00  0.446231D-03 -0.847452D-01  0.909940D-02 -0.606291D-02
     23  0.000000D+00 -0.211914D-03  0.910571D-02 -0.698489D-01 -0.130790D-01
     24  0.000000D+00  0.000000D+00  0.899714D-04 -0.967594D-04 -0.355745D+00
               16            17            18            19            20 
     16  0.311845D+00
     17 -0.171349D-02  0.553820D-01
[...]
     2   1     0.28  -0.22   0.04     0.45  -0.07  -0.03     0.18  -0.20   0.04
     3   1    -0.11   0.20  -0.13     0.20  -0.11   0.46    -0.14   0.22  -0.21
     4   1     0.28  -0.01  -0.48    -0.13  -0.10  -0.01     0.30   0.01  -0.46
     5   6    -0.03  -0.00   0.05     0.05  -0.02   0.02     0.03  -0.00  -0.05
     6   1    -0.15   0.21  -0.22    -0.18   0.07  -0.42     0.11  -0.21   0.14
     7   1     0.30   0.01  -0.46     0.07   0.10   0.11    -0.29   0.01   0.48
     8   1     0.18  -0.20   0.04    -0.49   0.11   0.02    -0.26   0.22  -0.03
                     13                     14                     15
                      A                      A                      A
 Frequencies --   3119.1777              3119.3196              3273.5067
 Red. masses --      1.0150                 1.0152                 1.1141
 Frc consts  --      5.8181                 5.8198                 7.0338
 IR Inten    --  0.5266E-01              23.95                  9.390    
  Atom  AN      X      Y      Z        X      Y      Z        X      Y      Z
     1   6    -0.01  -0.02  -0.00     0.01   0.02   0.00    -0.05   0.02  -0.00
     2   1    -0.00  -0.01   0.42     0.00   0.01  -0.39    -0.01   0.01   0.03
     3   1     0.38  -0.01  -0.19    -0.35   0.01   0.17     0.32  -0.00  -0.16
     4   1    -0.30   0.23  -0.19     0.28  -0.21   0.17     0.27  -0.22   0.17
     5   6     0.01   0.02   0.00     0.01   0.02   0.00    -0.04   0.03  -0.07
     6   1    -0.35   0.01   0.17    -0.38   0.01   0.19     0.00   0.01  -0.02
     7   1     0.28  -0.21   0.17     0.30  -0.23   0.19     0.43  -0.34   0.26
     8   1     0.00   0.01  -0.39     0.00   0.01  -0.43    -0.01  -0.00   0.59
                     16                     17                     18
                      A                      A                      A
 Frequencies --   3273.6655              3275.4950              3275.6752
 Red. masses --      1.1150                 1.1147                 1.1155
 Frc consts  --      7.0406                 7.0461                 7.0521
 IR Inten    --   4.750                  7.252                  3.310    
  Atom  AN      X      Y      Z        X      Y      Z        X      Y      Z
     1   6     0.08  -0.03  -0.01     0.00  -0.02   0.09    -0.01  -0.01   0.04
     2   1     0.01  -0.00   0.07     0.00   0.01  -0.73     0.00   0.01  -0.35
     3   1    -0.56   0.00   0.28     0.28  -0.01  -0.12     0.18  -0.01  -0.09
     4   1    -0.39   0.31  -0.25    -0.30   0.24  -0.18    -0.10   0.08  -0.06
     5   6    -0.01   0.02  -0.05    -0.04   0.01   0.01     0.08  -0.02  -0.04
     6   1    -0.06   0.00   0.02     0.31  -0.00  -0.15    -0.66   0.01   0.32
     7   1     0.24  -0.19   0.14     0.16  -0.13   0.11    -0.25   0.20  -0.17
     8   1    -0.00  -0.00   0.40    -0.01  -0.00  -0.11     0.01  -0.01   0.37

 -------------------
 - Thermochemistry -
 -------------------
 Temperature   298.150 Kelvin.  Pressure   1.00000 Atm.
 Atom     1 has atomic number  6 and mass  12.00000
 Atom     2 has atomic number  1 and mass   1.00783
 Atom     3 has atomic number  1 and mass   1.00783
 Atom     4 has atomic number  1 and mass   1.00783
 Atom     5 has atomic number  6 and mass  12.00000
 Atom     6 has atomic number  1 and mass   1.00783
 Atom     7 has atomic number  1 and mass   1.00783
 Atom     8 has atomic number  1 and mass   1.00783
 Molecular mass:    30.04695 amu.
 Principal axes and moments of inertia in atomic units:
                           1         2         3
     Eigenvalues --    24.13630 179.15852 179.16973
           X            0.32878  -0.51360   0.79254
           Y            0.92184  -0.00783  -0.38750
           Z            0.20523   0.85799   0.47088
 This molecule is an asymmetric top.
 Rotational symmetry number  1.
 Rotational temperatures (Kelvin)      3.58853     0.48345     0.48342
 Rotational constants (GHZ):          74.77289    10.07343    10.07280
    1 imaginary frequencies ignored.
 Zero-point vibrational energy     179175.4 (Joules/Mol)
                                   42.82395 (Kcal/Mol)
 Warning -- explicit consideration of   3 degrees of freedom as
           vibrations may cause significant error
 Vibrational temperatures:    105.04   818.31   822.02  1154.23  1156.20
          (Kelvin)           1460.25  1467.37  2068.64  2069.79  2077.64
                             2078.79  4487.80  4488.00  4709.84  4710.07
                             4712.70  4712.96
 
 Zero-point correction=                           0.068244 (Hartree/Particle)
 Thermal correction to Energy=                    0.072468
 Thermal correction to Enthalpy=                  0.073412
 Thermal correction to Gibbs Free Energy=         0.043415
 Sum of electronic and zero-point Energies=            -79.654936
 Sum of electronic and thermal Energies=               -79.650712
 Sum of electronic and thermal Enthalpies=             -79.649768
 Sum of electronic and thermal Free Energies=          -79.679765
 
                     E (Thermal)             CV                S
                      KCal/Mol        Cal/Mol-Kelvin    Cal/Mol-Kelvin
 Total                   45.474             12.497             63.134
 Electronic               0.000              0.000              0.000
 Translational            0.889              2.981             36.134
 Rotational               0.889              2.981             21.276
 Vibrational             43.697              6.536              5.724
 Vibration     1          0.599              1.967              4.071
 Vibration     2          0.925              1.099              0.507
 Vibration     3          0.927              1.093              0.502
                       Q            Log10(Q)             Ln(Q)
 Total Bot       0.107261D-19        -19.969557        -45.981605
 Total V=0       0.263378D+12         11.420580         26.296857
 Vib (Bot)       0.166285D-30        -30.779146        -70.871602
 Vib (Bot)    1  0.282388D+01          0.450846          1.038111
 Vib (Bot)    2  0.270935D+00         -0.567135         -1.305877
 Vib (Bot)    3  0.269024D+00         -0.570208         -1.312953
 Vib (V=0)       0.408311D+01          0.610991          1.406859
 Vib (V=0)    1  0.336780D+01          0.527347          1.214260
 Vib (V=0)    2  0.106869D+01          0.028851          0.066431
 Vib (V=0)    3  0.106778D+01          0.028482          0.065582
 Electronic      0.100000D+01          0.000000          0.000000
 Translational   0.647375D+07          6.811156         15.683266
 Rotational      0.996398D+04          3.998433          9.206732
 -------------------------------------------------------------------
 Center     Atomic                   Forces (Hartrees/Bohr)
 Number     Number              X              Y              Z
 -------------------------------------------------------------------
      1        6          -0.021837256   -0.061277972   -0.013975139
      2        1          -0.000002048    0.000019810    0.000074671
      3        1           0.000008574   -0.000087730    0.000108983
      4        1          -0.000066267   -0.000060207    0.000112999
      5        6           0.022154016    0.061270863    0.013524542
      6        1          -0.000075460   -0.000014895    0.000020163
      7        1          -0.000077143    0.000055742    0.000097836
      8        1          -0.000104416    0.000094389    0.000035946
 -------------------------------------------------------------------
 Cartesian Forces:  Max     0.061277972 RMS     0.019208380
 -----------------------------------------------------------------------------------------------
                       Internal Coordinate Forces (Hartree/Bohr or radian)
  Cent   Atom   N1       Length/X         N2         Alpha/Y        N3         Beta/Z          J
 -----------------------------------------------------------------------------------------------
      1  C 
      2  H        1   0.000075(     1)
      3  H        1  -0.000040(     2)      2  -0.000208(     8)
      4  H        1  -0.000038(     3)      2  -0.000219(     9)      3  -0.000163(    14)     0
      5  C        1  -0.066613(     4)      2   0.000023(    10)      3   0.000017(    15)     0
      6  H        5   0.000077(     5)      1   0.000040(    11)      2   0.000006(    16)     0
      7  H        5  -0.000043(     6)      6  -0.000212(    12)      1   0.000031(    17)     0
      8  H        5  -0.000036(     7)      6  -0.000213(    13)      7   0.000173(    18)     0
 -----------------------------------------------------------------------------------------------
 Internal  Forces:  Max     0.066612975 RMS     0.015701287

 GradGradGradGradGradGradGradGradGradGradGradGradGradGradGradGradGradGrad
 Berny optimization.
 Search for a local minimum.
 Step number   1 out of a maximum of    2
 All quantities printed in internal units (Hartrees-Bohrs-Radians)
 Second derivative matrix not updated -- analytic derivatives used.
 The second derivative matrix:
                          R1        R2        R3        A2        A3
           R1           0.36726
           R2           0.00046   0.36679
           R3           0.00045   0.00050   0.36685
           A2           0.01655   0.00369  -0.01330   0.18117
           A3           0.01659  -0.01334   0.00376   0.06354   0.18116
           D3           0.00059  -0.00902  -0.00959   0.04728   0.02454
           R21          0.00012  -0.00022   0.00012   0.00005  -0.00015
           R22          0.00012   0.00012  -0.00022  -0.00015   0.00005
           R23         -0.00022   0.00012   0.00012  -0.00029  -0.00029
           A22         -0.00015  -0.00029   0.00004  -0.00084   0.00120
           A23          0.00004  -0.00029  -0.00016   0.00080  -0.00083
           D23          0.00011  -0.00054  -0.00059  -0.00029   0.00023
           ANG2         0.00040  -0.00084   0.00040  -0.00627   0.00446
           DH3          0.00069  -0.00000  -0.00071   0.00140  -0.00452
           DH2          0.00000  -0.00000  -0.00000   0.00037  -0.00038
           DH1          0.00000  -0.00058   0.00059  -0.02292   0.02297
           ANG1        -0.00071   0.00033   0.00034   0.00826   0.00828
           BB           0.00045   0.00045   0.00045  -0.00439  -0.00439
                          D3        R21       R22       R23       A22
           D3           0.09271
           R21          0.00058   0.36730
           R22         -0.00011   0.00045   0.36682
           R23          0.00054   0.00046   0.00050   0.36679
           A22         -0.00476   0.01661   0.00375  -0.01332   0.18132
           A23          0.00168   0.01650  -0.01328   0.00379   0.06354
           D23          0.00226  -0.00058   0.00899   0.00960  -0.04728
           ANG2        -0.00757  -0.00067   0.00037   0.00037   0.00828
           DH3          0.01370   0.00002  -0.00061   0.00059  -0.02288
           DH2         -0.00011  -0.00005   0.00002   0.00007  -0.00052
           DH1         -0.05174  -0.00073   0.00068   0.00001   0.00455
           ANG1        -0.03224   0.00042   0.00041  -0.00080   0.00451
           BB           0.01108   0.00045   0.00045   0.00045  -0.00439
                          A23       D23      ANG2       DH3       DH2
           A23          0.18124
           D23         -0.02426   0.09303
           ANG2         0.00838   0.03225   0.10804
           DH3          0.02300   0.05183   0.00028   0.10325
           DH2          0.00046  -0.00009   0.00007  -0.00018   0.00132
           DH1         -0.00144   0.00046   0.02351  -0.01364   0.00019
           ANG1        -0.00615  -0.01565  -0.01340  -0.02338   0.00013
           BB          -0.00438  -0.01104   0.00000   0.00005   0.00001
                          DH1      ANG1       BB
           DH1          0.10286
           ANG1         0.00038   0.10878
           BB           0.00005   0.00010  -0.01941
 ITU=  0
     Eigenvalues ---    0.00131   0.02712   0.02940   0.07594   0.08512
     Eigenvalues ---    0.10597   0.11861   0.16986   0.19213   0.25516
     Eigenvalues ---    0.25860   0.36739   0.36765   0.36831   0.36841
     Eigenvalues ---    0.37272   0.373001000.00000
 Angle between quadratic step and forces=  63.17 degrees.
 Linear search not attempted -- first point.
 Variable       Old X    -DE/DX   Delta X   Delta X   Delta X     New X
                                 (Linear)    (Quad)   (Total)
    R1        2.04124   0.00007   0.00000   0.00026   0.00026   2.04151
    R2        2.04169  -0.00004   0.00000  -0.00017  -0.00017   2.04151
    R3        2.04168  -0.00004   0.00000  -0.00016  -0.00016   2.04152
    A2        2.02330  -0.00021   0.00000  -0.00057  -0.00057   2.02273
    A3        2.02347  -0.00022   0.00000  -0.00072  -0.00072   2.02275
    D3        3.82690  -0.00016   0.00000  -0.00173  -0.00173   3.82517
   R21        2.04124   0.00008   0.00000   0.00027   0.00027   2.04151
   R22        2.04170  -0.00004   0.00000  -0.00018  -0.00018   2.04152
   R23        2.04166  -0.00004   0.00000  -0.00015  -0.00015   2.04151
   A22        2.02335  -0.00021   0.00000  -0.00057  -0.00057   2.02278
   A23        2.02347  -0.00021   0.00000  -0.00074  -0.00074   2.02273
   D23        2.45636   0.00017   0.00000   0.00167   0.00167   2.45804
   ANG2       1.77762   0.00004   0.00000  -0.00000  -0.00000   1.77762
   DH3        1.91296   0.00003   0.00000  -0.00040  -0.00040   1.91255
   DH2        1.04747   0.00001   0.00000   0.00428   0.00428   1.05176
   DH1        1.91345   0.00002   0.00000  -0.00072  -0.00072   1.91273
   ANG1       1.77752   0.00002   0.00000  -0.00007  -0.00007   1.77745
    BB        4.53534  -0.06661   0.00000   0.00000   0.00000   4.53534
         Item               Value     Threshold  Converged?
 Maximum Force            0.000219     0.000450     YES
 RMS     Force            0.000123     0.000300     YES
 Maximum Displacement     0.004283     0.001800     NO 
 RMS     Displacement     0.001220     0.001200     NO 
 Predicted change in Energy=-5.947060D-07
 GradGradGradGradGradGradGradGradGradGradGradGradGradGradGradGradGradGrad


 Test job not archived.
 1\1\GINC-NODE-6-7\Freq\UwB97XD\Aug-CC-pVTZ\C2H6\CAVALLOTTI\27-May-2023
 \1\\#N Geom=AllCheck Guess=TCheck SCRF=Check Test GenChk UwB97XD/Aug-C
 C-pVTZ Freq\\geom 0\\0,1\C\H,1,R1\H,1,R2,2,A2\H,1,R3,2,A3,3,D3,0\C,1,B
 B,2,ANG1,3,DH1,0\H,5,R21,1,ANG2,2,DH2,0\H,5,R22,6,A22,1,DH3,0\H,5,R23,
 6,A23,7,D23,0\\R1=1.08018007\R2=1.08041362\R3=1.08041047\A2=115.926338
 15\A3=115.9364635\D3=219.26510275\R21=1.0801784\R22=1.08042119\R23=1.0
 8040117\A22=115.92917863\A23=115.93656447\D23=140.73913152\ANG2=101.85
 011772\DH3=109.60428201\DH2=60.01580274\DH1=109.63260803\ANG1=101.8446
 7967\BB=2.4\\Version=EM64L-G09RevD.01\HF=-79.7231803\S2=0.\S2-1=0.\S2A
 =0.\RMSD=3.504e-10\RMSF=1.921e-02\ZeroPoint=0.0682443\Thermal=0.072468
 \Dipole=0.0001057,-0.0000418,-0.0000283\DipoleDeriv=0.026446,0.0607188
 ,0.0136971,0.0602835,0.1745855,0.0381644,0.0133443,0.037742,0.0131399,
 0.042174,-0.0314597,-0.0199558,-0.0313713,-0.0349959,-0.0552059,-0.016
 0084,-0.0451919,-0.0791441,-0.0701458,-0.0539016,0.0382771,-0.0627539,
 -0.0333071,-0.0038983,0.0348867,-0.0081363,0.0332521,0.0014841,0.02461
 53,-0.0319785,0.0338357,-0.1063245,0.0210145,-0.0321821,0.0156459,0.03
 28068,0.0260883,0.0605617,0.0138068,0.0603519,0.1746272,0.0381495,0.01
 34747,0.0376035,0.0134304,-0.0696449,-0.053955,0.0381661,-0.0626384,-0
 .0332895,-0.0039926,0.0346226,-0.00815,0.0334007,0.0014792,0.0248031,-
 0.0321862,0.0337056,-0.1062618,0.0212255,-0.0320557,0.015606,0.0327262
 ,0.0421191,-0.0313826,-0.0198266,-0.031413,-0.0350339,-0.055457,-0.016
 0821,-0.0451192,-0.079612\Polar=33.7860093,11.6969842,62.4538982,2.604
 901,7.3186158,31.2526607\PG=C01 [X(C2H6)]\NImag=1\\0.55746223,-0.16384
 325,0.15661243,-0.03653797,-0.10274671,0.59434965,-0.04859277,0.008451
 69,-0.00106973,0.04340190,0.00845175,-0.02791792,-0.00306698,-0.006482
 27,0.02752867,0.00253991,0.00711226,-0.35250597,-0.00187721,-0.0052076
 1,0.36726362,-0.29347058,0.01009353,0.12146578,0.00422913,0.00073598,-
 0.00313169,0.30360757,0.00090755,-0.02799164,0.00889339,0.00104999,0.0
 0103874,0.00031654,-0.00756792,0.02756606,0.11789918,0.00444304,-0.107
 14259,0.02721720,0.00078954,-0.00748930,-0.12821515,-0.00353489,0.1066
 6736,-0.19248305,0.12444324,-0.08846624,0.00206005,-0.00158525,0.00264
 001,-0.01282775,0.01542142,-0.01342185,0.20044307,0.13360676,-0.128842
 47,0.08387371,-0.00189808,0.00318931,-0.00174126,-0.00234303,0.0031992
 2,-0.00090469,-0.13377227,0.13062924,-0.08850721,0.07815650,-0.1072089
 0,-0.02057645,0.01784682,-0.00750514,0.00983710,-0.00919619,0.00729063
 ,0.09704920,-0.08398707,0.10674538,-0.02423639,0.02525519,0.00558142,-
 0.00057327,-0.00039207,0.00003345,-0.00146855,-0.00981318,-0.00338673,
 0.00336108,0.00582827,0.00237696,0.55852496,0.02525487,0.03756189,0.01
 577909,-0.00039146,-0.00152722,0.00009285,-0.00009215,-0.00153186,-0.0
 0039655,-0.00391277,-0.00635820,-0.00245076,-0.16412311,0.15645479,0.0
 0558002,0.01578112,-0.02976082,-0.00381657,-0.01070743,0.00016209,0.00
 046483,0.00431633,0.00104971,0.00237872,0.00364545,0.00105471,-0.03700
 926,-0.10201753,0.59345797,-0.00146997,-0.00009864,0.00046633,-0.00021
 439,-0.00023180,-0.00017422,0.00008952,-0.00044799,-0.00030027,0.00005
 424,-0.00014592,0.00005361,-0.29408440,0.01035473,0.12160059,0.3041367
 2,-0.00982027,-0.00155155,0.00431190,0.00007792,0.00080650,-0.00029215
 ,-0.00044786,-0.00341773,-0.00107067,0.00037086,0.00033290,0.00056762,
 0.00118113,-0.02788352,0.00877977,-0.00779137,0.02749191,-0.00337517,-
 0.00039985,0.00104392,-0.00011127,0.00019872,-0.00007409,-0.00029964,-
 0.00106691,-0.00044100,0.00031659,0.00047296,0.00013961,0.11801968,0.0
 0433620,-0.10703208,-0.12833517,-0.00339489,0.10655135,0.00336286,-0.0
 0391922,0.00238152,0.00026981,0.00067179,-0.00005127,0.00005454,0.0003
 7153,0.00031751,-0.00087729,-0.00163470,-0.00044627,-0.19284515,0.1244
 9675,-0.08839607,-0.01273446,0.01536292,-0.01343066,0.20071229,0.00582
 449,-0.00636726,0.00365624,0.00035894,0.00032012,-0.00033942,-0.000145
 94,0.00033121,0.00047406,-0.00163461,-0.00246668,-0.00102291,0.1336413
 2,-0.12870575,0.08370120,-0.00237350,0.00318394,-0.00093094,-0.1338034
 9,0.13049526,0.00236820,-0.00244405,0.00105122,0.00021222,0.00008499,-
 0.00007434,0.00005328,0.00056545,0.00013957,-0.00044432,-0.00101980,-0
 .00044195,-0.08839571,0.07796010,-0.10696046,0.00981928,-0.00921252,0.
 00728851,0.09700902,-0.08381151,0.10659976,-0.00057233,-0.00038255,-0.
 00382111,-0.00058046,-0.00116811,0.00002103,-0.00021388,0.00007859,-0.
 00010989,0.00026964,0.00035896,0.00021307,-0.04867829,0.00841313,-0.00
 080226,0.00422274,0.00106666,0.02721565,0.00205738,-0.00186722,-0.0206
 2197,0.04349520,-0.00038190,-0.00150349,-0.01070063,-0.00116674,-0.003
 43821,0.00005879,-0.00023263,0.00080600,0.00020016,0.00066937,0.000316
 68,0.00008599,0.00842245,-0.02801013,-0.00349891,0.00073449,0.00103756
 ,0.00078469,-0.00154559,0.00320916,0.01787734,-0.00649947,0.02758243,0
 .00003304,0.00009769,0.00017349,0.00002181,0.00006194,0.00022312,-0.00
 017452,-0.00029373,-0.00007439,-0.00005211,-0.00033930,-0.00007435,0.0
 0278020,0.00669659,-0.35197111,-0.00313014,0.00031094,-0.00747622,0.00
 261623,-0.00172671,-0.00760231,-0.00209451,-0.00480743,0.36680176\\0.0
 2183726,0.06127797,0.01397514,0.00000205,-0.00001981,-0.00007467,-0.00
 000857,0.00008773,-0.00010898,0.00006627,0.00006021,-0.00011300,-0.022
 15402,-0.06127086,-0.01352454,0.00007546,0.00001490,-0.00002016,0.0000
 7714,-0.00005574,-0.00009784,0.00010442,-0.00009439,-0.00003595\\\@


 YOU CAN LEAD A BOY TO COLLEGE....
 BUT YOU CANNOT MAKE HIM THINK....
           ELBERT HUBBARD
 Job cpu time:       0 days  0 hours 52 minutes  1.2 seconds.
 File lengths (MBytes):  RWF=    106 Int=      0 D2E=      0 Chk=      7 Scr=      1
 Normal termination of Gaussian 09 at Sat May 27 08:45:58 2023.
