[Molden Format]
[Molpro variables]
_NUMVAR=  1056.000000000000    
_AVOGAD= 0.6022140760000000E+24
_BOLTZ= 0.1380649000000000E-22
_CLIGHTSI=  299792458.0000000    
_JOULE= 0.4359744722207100E-17
_JPCAL=  4.184000000000000    
_PLANCK= 0.6626070150000000E-33
_BOHR= 0.5291772109030000E-10
_ECHARG= 0.1602176634000000E-18
_ENULL= 0.8854187812800001E-11
_MU= 0.1660539066600000E-26
_EMASS= 0.9109383701500001E-30
_AMU2AU=  1822.888486217313    
_CLIGHT=  29979245800.00000    
_EV= 0.3674932217565494E-01
_KJOULE= 0.3808798847133432E-03
_KJOULE/MOL= 0.3808798847133432E-03
_CM= 0.4556335252912009E-05
_CM-1= 0.4556335252912009E-05
_DEB2SI= 0.3335640951981520E-29
_KCAL= 0.1593601437640628E-02
_KCAL/MOL= 0.1593601437640628E-02
_KELVIN= 0.3166811563455608E-05
_HERTZ= 0.1519829846057038E-15
_HZ= 0.1519829846057038E-15
_TOA= 0.5291772109030000    
_TOANG= 0.5291772109030000    
_TORAD= 0.1745329251994330E-01
_TOCM=  219474.6313631965    
_TODEBYE=  2.541746473194078    
_TOE= 0.4803204712570263E-09
_TOEV=  27.21138624598803    
_TOHERTZ=  6579683920501656.    
_TOHZ=  6579683920501656.    
_TOK=  315775.0248040668    
_TOKCAL=  627.5094740630558    
_TOKELVIN=  315775.0248040668    
_TOKJ=  2625.499639479825    
_TOKJOULE=  2625.499639479825    
_TOKG= 0.1660539066600000E-26
_ANG=  1.889726124625770    
_ANGSTROM=  1.889726124625770    
_RPAREF=  0.000000000000000    
_RPADISS=  0.000000000000000    
_IGNORE_UNDEF=  2.000000000000000    
_STRICTCHECK=  0.000000000000000    
!SEWARD=  0.000000000000000    
!MULTI=  0.000000000000000    
!DFMULTI=  0.000000000000000    
_SEW_ONEEL=  0.000000000000000    
_CPPDONE=FALSE
_DKROLL_DONE=  0.000000000000000    
_FNUC_DONE=  0.000000000000000    
_FOCKDONE=  0.000000000000000    
_GRADONE=FALSE
_HESSDONE=FALSE
_INTDONE=TRUE
_SCFDONE=FALSE
_MODUL_BLOCK=FALSE
_MODUL_CUDA=FALSE
_MODUL_SLATER=FALSE
_MODUL_MRCC=TRUE
_MODUL_NBO6=FALSE
_MODUL_NECI=FALSE
_MODUL_AIMS=TRUE
_MODUL_GECCO=FALSE
_ISWINDOWS=FALSE
_MRCC_EXEC=/software/cinetica/mrcc/bin/dmrcc
_FITC_AO_SAVED=FALSE
_FITC_MO_SAVED=FALSE
_SHARED_FS=TRUE
_LSTYP=SEWARD
_INTYP=INTS
_GEOMTYP=ZMAT
_GRADTYP=ALASKA
_DIRECT=FALSE
_DKHO= -1.000000000000000    
_FNUC=  0.000000000000000    
_SYNCM=  0.000000000000000    
_BASIS=CC-PVDZ
_ZORIENT=  1.000000000000000    
!ZORIENT=  0.000000000000000    
_NELEC=  18.00000000000000    
!SPIN=  0.000000000000000    
_QSDSTEP=  0.000000000000000    
_QSDIRC=  0.000000000000000    
_PROGRAM=RS2
_CPUSTEP= 0.1899999999999999    
_SYSSTEP= 0.7999999999999996E-01
_WALLSTEP= 0.6300000000000000    
!DFMP2=  0.000000000000000    
!DFHFENERG=  0.000000000000000    
!SCSGRD=  0.000000000000000    
_CPUTOT=  1.460000000000000    
_DMX= 0.7094493899498726E-04
_DMY= 0.3515799960173570E-03
_DMZ=-0.2934775650719965E-04
_EMP2= -79.41987154333145    
_ENERGR= -79.14681463729245    
_ENERGU= -79.40294004915640    
_ENERGY= -79.41987154333145    
_ENERGY_METHOD=RS2
_ENERGY_BASIS=cc-pVDZ
_GEOMETRY_METHOD=
_GEOMETRY_BASIS=
_ENERGY_AVRG= -79.14681463729254    
_ENUC=  34.57027710621374    
_GRADMETHOD=  9.000000000000000    
_NMRMETHOD=  0.000000000000000    
_NMRMAGNET=  0.000000000000000    
!GRID_FREEZE= -1.000000000000000    
!NEESE_INDEX=  0.000000000000000    
_ITERATIONS=  5.000000000000000    
_LASTNELEC=  2.000000000000000    
_LASTSPIN=  0.000000000000000    
_LASTSYM=  1.000000000000000    
_MPP_PROG=  1.000000000000000    
_MSNSTATES=  0.000000000000000    
_RS2PHASE=  0.000000000000000    
_IPROC_MPP=  0.000000000000000    
_IPROC_MPPX=  0.000000000000000    
_NPROC_MPP=  4.000000000000000    
_NPROC_MPPX=  4.000000000000000    
_NPROC_SMP=  1.000000000000000    
_NUMSTEP=  0.000000000000000    
_ORBITAL=  2140.200000000000    
_PI=  3.141592653589793    
!MCACT=  2.000000000000000    
!MCCLOSED=  8.000000000000000    
!MCFREEZE=  0.000000000000000    
!MCMS2=  0.000000000000000    
!MCNEL=  2.000000000000000    
!MCNSTSYM=  1.000000000000000    
!MCSTATE=  1.000000000000000    
!MCSYM=  1.000000000000000    
!MCWEIGHT=  1.000000000000000    
_SEIG_MIN= 0.1181525236566661E-01
_SEWPROP=TRUE
_STATUS=  1.000000000000000    
_SYSTOT= 0.5500000000000000    
_VERSION=  2022002.000000000    
_WALLTOT=  3.340000000000000    
_DATE=27-May-23
_LASTORB=MCSCF
_OUTPUT=/home/chimica2/cavallotti/qm/barrierless/vrc_autom/folders/ch3+ch3/dist_2.6/molpro.out
_PGROUP=C1
_TIME=09:28:05
_LIBMOL=/software/cinetica/molpro_2022.2/lib/
_VIGRDC=  0.000000000000000    
!VIBCNT=  0.000000000000000    
!RGHFCNT=  0.000000000000000    
!SURFREC=  0.000000000000000    
!XSURFREC=  0.000000000000000    
!XPOLYREC=  0.000000000000000    
!ROTREC=  0.000000000000000    
!POLYREC=  0.000000000000000    
!DIPREC=  0.000000000000000    
!DIP4DREC=  0.000000000000000    
!DIPROT=  0.000000000000000    
!DIP4DROT=  0.000000000000000    
!PTREC=  0.000000000000000    
!PT4DREC=  0.000000000000000    
!VSCFREC=  0.000000000000000    
!VCIREC=  0.000000000000000    
!PVCIREC=  0.000000000000000    
!VMP2REC=  0.000000000000000    
!VMCSCFREC=  0.000000000000000    
!VMRCIREC=  0.000000000000000    
!VIBSTATEREC=  0.000000000000000    
!VIBSTATECNT=  0.000000000000000    
!VIBINFO=  0.000000000000000    
!GAREC=  0.000000000000000    
!MCORB=  21402.00000000000    
!DEFCORE=  2.000000000000000    
!SCORE=  0.000000000000000    
!NEWMOL= -1.000000000000000    
!NEWSYM= -1.000000000000000    
_SLFILES=slscratch
_NGSSTO=  9.000000000000000    
_SIN=SIN
_COS=COS
_TAN=TAN
_ACOS=ACOS
_ASIN=ASIN
_ATAN=ATAN
_COSH=COSH
_SINH=SINH
_TANH=TANH
_ABS=ABS
_MOD=MOD
_ERF=ERF
_REFC=REFC
_ERFC=ERFC
_HYPOT=HYPOT
_J0=J0
_J1=J1
_JN=JN
_GAMMA=GAMMA
_LGAMMA=LGAMMA
_Y0=Y0
_Y1=Y1
_YN=YN
_EXP=EXP
_LOG=LOG
_LOG10=LOG10
_SQRT=SQRT
_INT=INT
_NINT=NINT
_MAX=MAX
_MIN=MIN
_COSMO=  0.000000000000000    
_COSMOIT=  0.000000000000000    
_COSMOES=  0.000000000000000    
_COSMOEDS=  0.000000000000000    
_COSMOEC=  0.000000000000000    
_COSMOEDCORR=  0.000000000000000    
_FEPSI=  1.000000000000000    
_SL_IsMM=  0.000000000000000    
_SL_NSYM=  1.000000000000000    
_SL_System_BitSw=  0.000000000000000    
_SL_Unique_atoms=  0.000000000000000    
_SL_GRAD=  0.000000000000000    
_SL_MAXUPD_Hess=  5.000000000000000    
_SL_N_PRINT_COD=  5.000000000000000    
_SL_PRINT_CODES=  0.000000000000000    
_SL_BasType=  0.000000000000000    
_SL_Energy_Pred=  0.000000000000000    
_SL_New_Coords=  0.000000000000000    
_SL_Total_Nuclea=  0.000000000000000    
_SL_Highest_Mltp=  0.000000000000000    
_SL_Ref_Geom=  0.000000000000000    
_SL_Symmetry_ope=  1.000000000000000    
_SL_agrad=  0.000000000000000    
_SL_GrdMax=  0.000000000000000    
_SL_GrdNorm=  0.000000000000000    
_SL_GrdRMS=  0.000000000000000    
_SL_Hss_Q=  0.000000000000000    
_SL_Hss_X=  0.000000000000000    
_SL_BMxOld=  0.000000000000000    
_SL_KtB=  0.000000000000000    
_SL_TROld=  0.000000000000000    
_SL_No_of_Intern=  0.000000000000000    
_SL_Hess=  0.000000000000000    
_SL_K=  0.000000000000000    
!LATTICE= -1.000000000000000    
!NEWLATTICE=  0.000000000000000    
!LATGRAD_VAR=FALSE
!SEW_LATTICE=  1.000000000000000    
!AIC_ONEEL=  0.000000000000000    
!LOCAL=  0.000000000000000    
!SAVEDOM= -1.000000000000000    
!RESTDOM= -1.000000000000000    
!SAVEDOM_HF= -1.000000000000000    
!RESTDOM_HF= -1.000000000000000    
!HESSREC=  0.000000000000000    
!FREQREC=  0.000000000000000    
!NMODREC=  0.000000000000000    
!GTASKS=  0.000000000000000    
!HTASKS=  0.000000000000000    
!SAVEDOM_EOM= -1.000000000000000    
!RESTDOM_EOM= -1.000000000000000    
!GRADSTATE= -1.000000000000000    
!DEBUG=  0.000000000000000    
!CFIT_CPHF=  0.000000000000000    
!RDOMAUX_CPHF=  0.000000000000000    
!THRAO_CPHF= 0.1000000000000000E-11
!THRMO_CPHF= 0.1000000000000000E-11
!THROV_CPHF= 0.1000000000000000E-11
!THRSW_CPHF= 0.1000000000000000E-11
!THRPROD_CPHF= 0.1000000000000000E-11
!THRAOPR_CPHF= 0.1000000000000000E-11
!CFIT_SCFGRD=  0.000000000000000    
!RDOMAUX_SCFGRD=  0.000000000000000    
!THRAO_SCFGRD= 0.1000000000000000E-11
!THRMO_SCFGRD= 0.1000000000000000E-11
!THROV_SCFGRD= 0.1000000000000000E-11
!THRSW_SCFGRD= 0.1000000000000000E-11
!THRPROD_SCFGRD= 0.1000000000000000E-11
!THRAOPR_SCFGRD= 0.1000000000000000E-11
!LOCFIT_SCF=  0.000000000000000    
!LOCFIT_MP2=  0.000000000000000    
_RIDOM=  0.000000000000000    
!CC2_METHOD=  0.000000000000000    
_BASIS2006=FALSE
_SVDDEL= -1.000000000000000    
_SVDDELA= -1.000000000000000    
_SVDDELP= -1.000000000000000    
_SVDDELF= -1.000000000000000    
_SVDDELS= -1.000000000000000    
_SVDDEL_ABS= -1.000000000000000    
_SVDDELA_ABS= -1.000000000000000    
_SVDDELP_ABS= -1.000000000000000    
_SVDDELF_ABS= -1.000000000000000    
_SVDDELS_ABS= -1.000000000000000    
_MAXBASIS=  0.000000000000000    
!OPT_CONICAL=  0.000000000000000    
!CLEARSP_JGRID=  0.000000000000000    
_GRDHYBR=  0.000000000000000    
_STATEGRAD=  1.000000000000000    
_4EXT_NDISKS=  1.000000000000000    
!EMBEDFLAG=  1.000000000000000    
!EMBED=FALSE
!EMBED_F12=FALSE
!EMBEDNUC=  0.000000000000000    
_EMBEDENERGY=  0.000000000000000    
!EMBED_DFC=FALSE
!NUM_VOIDS=  0.000000000000000    
_IBODY=  0.000000000000000    
_EMBE_CORR=  0.000000000000000    
!EMBED_PROJ=FALSE
!EMB_PROJ_ZMU=  1000000.000000000    
!CORRECTION_HF=  0.000000000000000    
!EMBED_AORB=  0.000000000000000    
!EMBED_NACORR=  0.000000000000000    
!EMBED_MP2=FALSE
!EMBED_TRUNC_PERTURBATION=FALSE
!EMBED_FROZEN=  0.000000000000000    
!EMBED_ACTIVE=  0.000000000000000    
_CHANGE_BASIS=FALSE
_RESTORE_BASIS=FALSE
_FIX_EMBED_GUESS=FALSE
_EMBED_SCF=FALSE
_HUZINAGA_T=FALSE
_HUZINAGA_F=FALSE
_HUZINAGA=FALSE
_HUZINAGA_CORRECT=FALSE
!FASTLATGRAD=  1.000000000000000    
!FASTVLAMBDA= -1.000000000000000    
!IFORCE= -1.000000000000000    
!USESYM= -1.000000000000000    
_SINDEX=  0.000000000000000    
_AVDOM_OSV=  0.000000000000000    
_AVDOM_PNO=  0.000000000000000    
_AVDOM_PAO=  0.000000000000000    
_AVDOM_LMO=  0.000000000000000    
_CC2OSV_FLAG=  0.000000000000000    
_EOMCCSD_CONV=FALSE
_TMADC2_FLAG=FALSE
_PROPADC2_FLAG=FALSE
_LEN_VirQ=  0.000000000000000    
_GRDCC2LR_FLAG=FALSE
_GRDADC2_FLAG=FALSE
_DMX_CC=-0.2286383462817287E-03
_DMY_CC=-0.1908667226945937E-02
_DMZ_CC= 0.4649830124492382E-03
_DMX_NUC= 0.1548406809999819E-03
_DMY_NUC= 0.1168343886000400E-02
_DMZ_NUC=-0.2880548019956741E-03
_RO_VGLOBAL=  0.000000000000000    
_OPT=FALSE
_FREQ=FALSE
_HESS=FALSE
_CMRCC_callName=EMPTY
_CMRCC_callCount=  0.000000000000000    
_GECCO_CIROOT=  1.000000000000000    
_SYM_CATION=  0.000000000000000    
_MON_A=FALSE
_MON_B=FALSE
R1=  1.079300000000000    
R2=  1.079200000000000    
R3=  1.079200000000000    
A2=  117.5639000000000    
A3=  117.5736000000000    
D3=  210.5146000000000    
R21=  1.079300000000000    
R22=  1.079200000000000    
R23=  1.079200000000000    
A22=  117.5627000000000    
A23=  117.5768000000000    
D23=  149.5089000000000    
ANG2=  98.99970000000000    
DH3=  105.1655000000000    
DH2=  60.02560000000000    
DH1=  105.2295000000000    
ANG1=  99.00910000000000    
BB=  2.600000000000000    
GX1= 0.2135906673017378E-05
GY1=-0.1247620787537818E-03
GZ1= -2.456619618005949    
GX2= 0.3275230801168746E-01
GY2=  2.014025719597980    
GZ2= -2.776021522114574    
GX3=  1.727832647132919    
GY3= -1.034782785930718    
GZ3= -2.777876519521582    
GX4= -1.759940554896351    
GY4=-0.9786357886314268    
GZ4= -2.779480880192780    
GX5=-0.2830741293296038E-04
GY5=-0.7271393154767436E-04
GZ5=  2.456668305651057    
GX6= -1.728472002260347    
GY6=  1.034623112876826    
GZ6=  2.775696913596010    
GX7=  1.759427064833296    
GY7= 0.9804060595984769    
GZ7=  2.776198689727391    
GX8=-0.3128759310506425E-01
GY8= -2.013283117559028    
GZ8=  2.780903137834653    
CBSEN= -79.41987154333145    
[Atoms] Angs
C     1    6         0.0000011303       -0.0000660212       -1.2999871177
H     2    1         0.0173317750        1.0657765130       -1.4690073265
H     3    1         0.9143296611       -0.5475834685       -1.4699889488
H     4    1        -0.9313204342       -0.5178717571       -1.4708379399
C     5    6        -0.0000149796       -0.0000384786        1.3000128821
H     6    1        -0.9146679933        0.5474989732        1.4688355510
H     7    1         0.9310487070        0.5188085442        1.4691010795
H     8    1        -0.0165566813       -1.0653835449        1.4715905663
[GTO]
   1 0
 s    9  1.00
  0.6665000000D+04  0.6920001793D-03
  0.1000000000D+04  0.5329001381D-02
  0.2280000000D+03  0.2707700701D-01
  0.6471000000D+02  0.1017180264D+00
  0.2106000000D+02  0.2747400712D+00
  0.7495000000D+01  0.4485641162D+00
  0.2797000000D+01  0.2850740738D+00
  0.5215000000D+00  0.1520400394D-01
  0.1596000000D+00 -0.3191000827D-02
 s    9  1.00
  0.6665000000D+04 -0.1460000642D-03
  0.1000000000D+04 -0.1154000508D-02
  0.2280000000D+03 -0.5725002519D-02
  0.6471000000D+02 -0.2331201026D-01
  0.2106000000D+02 -0.6395502813D-01
  0.7495000000D+01 -0.1499810660D+00
  0.2797000000D+01 -0.1272620560D+00
  0.5215000000D+00  0.5445292395D+00
  0.1596000000D+00  0.5804962554D+00
 s    9  1.00
  0.6665000000D+04  0.0000000000D+00
  0.1000000000D+04  0.0000000000D+00
  0.2280000000D+03  0.0000000000D+00
  0.6471000000D+02  0.0000000000D+00
  0.2106000000D+02  0.0000000000D+00
  0.7495000000D+01  0.0000000000D+00
  0.2797000000D+01  0.0000000000D+00
  0.5215000000D+00  0.0000000000D+00
  0.1596000000D+00  0.1000000000D+01
 p    4  1.00
  0.9439000000D+01  0.3810902127D-01
  0.2002000000D+01  0.2094801169D+00
  0.5456000000D+00  0.5085572839D+00
  0.1517000000D+00  0.4688422617D+00
 p    4  1.00
  0.9439000000D+01  0.0000000000D+00
  0.2002000000D+01  0.0000000000D+00
  0.5456000000D+00  0.0000000000D+00
  0.1517000000D+00  0.1000000000D+01
 d    1  1.00
  0.5500000000D+00  0.1000000000D+01
  
   2 0
 s    4  1.00
  0.1301000000D+02  0.1968498999D-01
  0.1962000000D+01  0.1379769298D+00
  0.4446000000D+00  0.4781477569D+00
  0.1220000000D+00  0.5012397451D+00
 s    4  1.00
  0.1301000000D+02  0.0000000000D+00
  0.1962000000D+01  0.0000000000D+00
  0.4446000000D+00  0.0000000000D+00
  0.1220000000D+00  0.1000000000D+01
 p    1  1.00
  0.7270000000D+00  0.1000000000D+01
  
   3 0
 s    4  1.00
  0.1301000000D+02  0.1968498999D-01
  0.1962000000D+01  0.1379769298D+00
  0.4446000000D+00  0.4781477569D+00
  0.1220000000D+00  0.5012397451D+00
 s    4  1.00
  0.1301000000D+02  0.0000000000D+00
  0.1962000000D+01  0.0000000000D+00
  0.4446000000D+00  0.0000000000D+00
  0.1220000000D+00  0.1000000000D+01
 p    1  1.00
  0.7270000000D+00  0.1000000000D+01
  
   4 0
 s    4  1.00
  0.1301000000D+02  0.1968498999D-01
  0.1962000000D+01  0.1379769298D+00
  0.4446000000D+00  0.4781477569D+00
  0.1220000000D+00  0.5012397451D+00
 s    4  1.00
  0.1301000000D+02  0.0000000000D+00
  0.1962000000D+01  0.0000000000D+00
  0.4446000000D+00  0.0000000000D+00
  0.1220000000D+00  0.1000000000D+01
 p    1  1.00
  0.7270000000D+00  0.1000000000D+01
  
   5 0
 s    9  1.00
  0.6665000000D+04  0.6920001793D-03
  0.1000000000D+04  0.5329001381D-02
  0.2280000000D+03  0.2707700701D-01
  0.6471000000D+02  0.1017180264D+00
  0.2106000000D+02  0.2747400712D+00
  0.7495000000D+01  0.4485641162D+00
  0.2797000000D+01  0.2850740738D+00
  0.5215000000D+00  0.1520400394D-01
  0.1596000000D+00 -0.3191000827D-02
 s    9  1.00
  0.6665000000D+04 -0.1460000642D-03
  0.1000000000D+04 -0.1154000508D-02
  0.2280000000D+03 -0.5725002519D-02
  0.6471000000D+02 -0.2331201026D-01
  0.2106000000D+02 -0.6395502813D-01
  0.7495000000D+01 -0.1499810660D+00
  0.2797000000D+01 -0.1272620560D+00
  0.5215000000D+00  0.5445292395D+00
  0.1596000000D+00  0.5804962554D+00
 s    9  1.00
  0.6665000000D+04  0.0000000000D+00
  0.1000000000D+04  0.0000000000D+00
  0.2280000000D+03  0.0000000000D+00
  0.6471000000D+02  0.0000000000D+00
  0.2106000000D+02  0.0000000000D+00
  0.7495000000D+01  0.0000000000D+00
  0.2797000000D+01  0.0000000000D+00
  0.5215000000D+00  0.0000000000D+00
  0.1596000000D+00  0.1000000000D+01
 p    4  1.00
  0.9439000000D+01  0.3810902127D-01
  0.2002000000D+01  0.2094801169D+00
  0.5456000000D+00  0.5085572839D+00
  0.1517000000D+00  0.4688422617D+00
 p    4  1.00
  0.9439000000D+01  0.0000000000D+00
  0.2002000000D+01  0.0000000000D+00
  0.5456000000D+00  0.0000000000D+00
  0.1517000000D+00  0.1000000000D+01
 d    1  1.00
  0.5500000000D+00  0.1000000000D+01
  
   6 0
 s    4  1.00
  0.1301000000D+02  0.1968498999D-01
  0.1962000000D+01  0.1379769298D+00
  0.4446000000D+00  0.4781477569D+00
  0.1220000000D+00  0.5012397451D+00
 s    4  1.00
  0.1301000000D+02  0.0000000000D+00
  0.1962000000D+01  0.0000000000D+00
  0.4446000000D+00  0.0000000000D+00
  0.1220000000D+00  0.1000000000D+01
 p    1  1.00
  0.7270000000D+00  0.1000000000D+01
  
   7 0
 s    4  1.00
  0.1301000000D+02  0.1968498999D-01
  0.1962000000D+01  0.1379769298D+00
  0.4446000000D+00  0.4781477569D+00
  0.1220000000D+00  0.5012397451D+00
 s    4  1.00
  0.1301000000D+02  0.0000000000D+00
  0.1962000000D+01  0.0000000000D+00
  0.4446000000D+00  0.0000000000D+00
  0.1220000000D+00  0.1000000000D+01
 p    1  1.00
  0.7270000000D+00  0.1000000000D+01
  
   8 0
 s    4  1.00
  0.1301000000D+02  0.1968498999D-01
  0.1962000000D+01  0.1379769298D+00
  0.4446000000D+00  0.4781477569D+00
  0.1220000000D+00  0.5012397451D+00
 s    4  1.00
  0.1301000000D+02  0.0000000000D+00
  0.1962000000D+01  0.0000000000D+00
  0.4446000000D+00  0.0000000000D+00
  0.1220000000D+00  0.1000000000D+01
 p    1  1.00
  0.7270000000D+00  0.1000000000D+01


[MO]
 Sym=      1.1
 Ene=     -11.2348
 Spin= Alpha
 Occup=    2.000000
1 0.67932617814499
2 0.004835436311485
3 -0.004876299312026
4 0.000000193648828
5 0.000000407949453
6 -0.000558567699717
7 -0.000000015864450
8 -0.000000551873956
9 0.000355022262693
10 0.000182315179248
11 0.000182048199254
12 -0.000364363378502
13 0.000000121221695
14 0.000000367411406
15 0.000000669263390
16 -0.000327491844427
17 0.000984359907984
18 0.000004749479984
19 0.000294380380191
20 -0.000117930395428
21 -0.000328163542045
22 0.000984821019909
23 0.000252496383442
24 -0.000151133813219
25 -0.000118202190261
26 -0.000328385605274
27 0.000984977744123
28 -0.000257251078079
29 -0.000142928855693
30 -0.000118467190934
31 0.73551576424772
32 0.005343688025946
33 -0.005465406369676
34 0.000000117938801
35 0.000000739524858
36 0.000572587593710
37 -0.000000349663471
38 -0.000000534080641
39 -0.000298897576224
40 0.000207271132238
41 0.000207898922651
42 -0.000415170054890
43 0.000000041652308
44 0.000000118717923
45 -0.000001360490147
46 -0.000338102661473
47 0.001062278793593
48 -0.000276658980461
49 0.000165643019790
50 0.000117342290798
51 -0.000338110288988
52 0.001062598827928
53 0.000281606131053
54 0.000156929074438
55 0.000117420584793
56 -0.000339171249054
57 0.001063025161644
58 -0.000004987511559
59 -0.000322323798624
60 0.000118237647247
 Sym=      2.1
 Ene=     -11.2348
 Spin= Alpha
 Occup=    2.000000
1 0.73585108971498
2 0.006603301593369
3 -0.007627964866255
4 0.000000123578485
5 0.000000134397801
6 -0.000203714637035
7 -0.000000576026286
8 -0.000000119488668
9 -0.000689447980482
10 0.000327383616177
11 0.000327210489304
12 -0.000654594105480
13 0.000000183579482
14 0.000000351142646
15 0.000000716968172
16 -0.000143010822377
17 0.001021590762243
18 0.000005959141239
19 0.000365493577299
20 0.000001488042035
21 -0.000143141071658
22 0.001021769747230
23 0.000313512368671
24 -0.000187687456554
25 0.000001198195760
26 -0.000144067722624
27 0.001021819492261
28 -0.000319432733208
29 -0.000177564421942
30 0.000000889433495
31 -0.67968921614652
32 -0.006199317355235
33 0.007217310945733
34 -0.000000111244263
35 -0.000000311680402
36 -0.000158228415561
37 -0.000000100447258
38 0.000001259720190
39 -0.000715732818092
40 -0.000311516651244
41 -0.000312185063531
42 0.000623701714775
43 -0.000000103333335
44 -0.000000098009972
45 0.000001164710198
46 0.000116075349296
47 -0.000940207568207
48 0.000292559214385
49 -0.000175198649675
50 0.000010934523201
51 0.000116637246997
52 -0.000940584087485
53 -0.000297831008400
54 -0.000166059525511
55 0.000010855306533
56 0.000118335207169
57 -0.000940526176698
58 0.000005311402490
59 0.000341011199830
60 0.000010066079249
 Sym=      3.1
 Ene=      -0.9094
 Spin= Alpha
 Occup=    2.000000
1 -0.019958747015612
2 0.52242636933846
3 -0.10502709380679
4 0.000040710182715
5 0.000045530901577
6 -0.058217690043641
7 -0.000006653822551
8 0.000008992214725
9 0.009157570770449
10 0.000560533292164
11 0.000560182021348
12 -0.001120715313512
13 -0.000001102606220
14 0.000001351236655
15 0.000005348432040
16 0.24656780613728
17 -0.10204961058734
18 -0.000319916150167
19 -0.019742104783327
20 0.001282385965984
21 0.24660305135254
22 -0.10206424576635
23 -0.016938968337819
24 0.010144676349693
25 0.001301627298418
26 0.24659296229472
27 -0.10206063078337
28 0.017256017415449
29 0.009594249978699
30 0.001318317770103
31 -0.019959056709519
32 0.52245320766089
33 -0.10502683878608
34 0.000018757488720
35 0.000122763990624
36 0.058191023123828
37 -0.000011739471870
38 -0.000011652729109
39 -0.009145072098506
40 0.000562881995677
41 0.000558932185442
42 -0.001121814181119
43 0.000000876761555
44 0.000000272822278
45 -0.000006241580746
46 0.24656566764524
47 -0.10205052710355
48 0.016942683473085
49 -0.010138927937491
50 -0.001279021621414
51 0.24662663530208
52 -0.10207607554417
53 -0.017250460858567
54 -0.009610431762282
55 -0.001285022873537
56 0.24658729947001
57 -0.10206012543796
58 0.000307248318676
59 0.019741347443474
60 -0.001333278350790
 Sym=      4.1
 Ene=      -0.8827
 Spin= Alpha
 Occup=    2.000000
1 -0.017860234641727
2 0.53877231170247
3 -0.11464559765549
4 0.000023428560553
5 0.000001885051309
6 -0.064572242633744
7 -0.000011188194488
8 0.000007276324370
9 0.010346829638710
10 0.002000476299638
11 0.001995599998245
12 -0.003996076297883
13 0.000000515065567
14 0.000001907895480
15 0.000004394050652
16 0.25519073571009
17 -0.10520121098570
18 -0.000325251688664
19 -0.020059773036645
20 0.001904976417766
21 0.25527181818412
22 -0.10523401377610
23 -0.017213117909649
24 0.010308147997200
25 0.001923317558852
26 0.25528542577656
27 -0.10524378821364
28 0.017535178459707
29 0.009748914370363
30 0.001939967450948
31 0.017860216603628
32 -0.53876429562937
33 0.11463526923186
34 -0.000024405875000
35 -0.000056514457794
36 -0.064522811360068
37 0.000011831900044
38 0.000018515863248
39 0.010338564946949
40 -0.001995428015640
41 -0.002000135454084
42 0.003995563469724
43 -0.000001748237332
44 -0.000001237554628
45 0.000007391170780
46 -0.25517350809216
47 0.10519332108745
48 -0.017214565993232
49 0.010302636913948
50 0.001901071563186
51 -0.25524573585163
52 0.10522456948044
53 0.017526932693490
54 0.009765698134978
55 0.001907491353315
56 -0.25528789847243
57 0.10524851891150
58 -0.000312365637174
59 -0.020059475198639
60 0.001955022795968
 Sym=      5.1
 Ene=      -0.5697
 Spin= Alpha
 Occup=    2.000000
1 -0.000000944022533
2 -0.000063978445488
3 0.000027375310635
4 0.22379921454167
5 0.38986489366901
6 0.000457515405563
7 -0.041852119302016
8 -0.072909243827281
9 -0.000093327396757
10 -0.012811475848128
11 0.012820265931832
12 -0.000008790083704
13 -0.007559307398502
14 -0.003447345605919
15 -0.005971255009534
16 0.38677072802851
17 -0.10882747171441
18 0.004137287011621
19 -0.012991877589839
20 0.002971118601862
21 -0.008253509622267
22 0.002318066850738
23 0.004857281852605
24 0.007569436208527
25 -0.000056169538217
26 -0.37859715844260
27 0.10655146832459
28 -0.013309513354978
29 -0.002091094489699
30 -0.002926805307989
31 -0.000000150878076
32 -0.000081333208743
33 0.000004323959062
34 0.22347872150396
35 0.39084868159919
36 -0.000601655710528
37 -0.041799087679469
38 -0.073102021135438
39 0.000124642699972
40 0.012829102632175
41 -0.012814996621721
42 -0.000014106010454
43 0.007587658213738
44 0.003415873035670
45 0.006019358961908
46 0.008700984248323
47 -0.002455071073118
48 0.004871111240071
49 0.007575799423358
50 -0.000077376667703
51 0.37888049736844
52 -0.10661987288774
53 -0.013322112079044
54 -0.002097986744656
55 -0.002914735954867
56 -0.38765546573805
57 0.10910341123978
58 0.004146329689066
59 -0.013015074318900
60 0.003007772884808
 Sym=      6.1
 Ene=      -0.5696
 Spin= Alpha
 Occup=    2.000000
1 0.000001168115614
2 0.000031692003525
3 -0.000021414842997
4 0.39066731546796
5 -0.22333500365580
6 -0.000041111521708
7 -0.073052168530044
8 0.041758550461614
9 0.000005426985291
10 0.006543786774512
11 -0.006541147841278
12 -0.000002638933234
13 -0.014820524416535
14 -0.006003182359771
15 0.003412220888284
16 -0.21332262307830
17 0.060021415490859
18 0.007999089606368
19 0.006998727308724
20 -0.001634299253774
21 0.44233862475204
22 -0.12448605609950
23 -0.012585955012584
24 0.007748919089315
25 0.003409040664341
26 -0.22894593032817
27 0.064429542834922
28 -0.002940652530918
29 -0.010446304935439
30 -0.001774343460329
31 -0.000001177196232
32 -0.000009080588188
33 -0.000010101945038
34 0.39004786131992
35 -0.22392642814070
36 0.000381962171721
37 -0.072931920312211
38 0.041873777005343
39 -0.000086713301856
40 -0.006580120875114
41 0.006568035121206
42 0.000012085753908
43 0.014799728704685
44 0.005954290987281
45 -0.003444351623129
46 -0.44211548078137
47 0.12440889377599
48 -0.012592882091307
49 0.007729849041353
50 0.003388665308249
51 0.22790834564684
52 -0.064132518977298
53 -0.002900976138434
54 -0.010442514944199
55 -0.001739204885345
56 0.21417177728114
57 -0.060274910959862
58 0.007980102949955
59 0.007031388193425
60 -0.001660398288255
 Sym=      7.1
 Ene=      -0.5532
 Spin= Alpha
 Occup=    2.000000
1 0.000001913611802
2 0.000092334607200
3 -0.000004642078652
4 0.20606055027624
5 0.41087775766446
6 0.000397790317004
7 -0.039877970354644
8 -0.079479050739681
9 -0.000092385027118
10 -0.013462007760921
11 0.013481666572073
12 -0.000019658811152
13 -0.006873656829286
14 -0.004152852890707
15 -0.008237622330388
16 0.41190633471860
17 -0.11141765789900
18 0.003795499645910
19 -0.013978252959972
20 0.002947739571438
21 -0.034133413416830
22 0.009235670656285
23 0.005740743313139
24 0.007342347199082
25 -0.000236280621845
26 -0.37762364657947
27 0.10214382183388
28 -0.013682032273689
29 -0.001629339245391
30 -0.002719901562214
31 -0.000000659731671
32 -0.000049658745286
33 0.000012906295616
34 -0.20639665256705
35 -0.40988307987931
36 0.000582936604947
37 0.039926928906325
38 0.079320962982499
39 -0.000130686811588
40 -0.013428681699291
41 0.013405864401898
42 0.000022817297394
43 -0.006928790947388
44 -0.004132062452099
45 -0.008255821303075
46 -0.033169034150309
47 0.008972733987911
48 -0.005703990252168
49 -0.007347481038671
50 0.000248543447467
51 -0.37767407191982
52 0.10216642541445
53 0.013673686927202
54 0.001669665525708
55 0.002708029581354
56 0.41073269430204
57 -0.11109614560350
58 -0.003819509779051
59 0.013926271880952
60 -0.002970411887091
 Sym=      8.1
 Ene=      -0.5532
 Spin= Alpha
 Occup=    2.000000
1 0.000001209715382
2 0.000060125378094
3 -0.000003131959229
4 -0.41010226958740
5 0.20646396134289
6 -0.000029602292470
7 0.079348058904372
8 -0.039932972179019
9 0.000005580318657
10 -0.005976033978990
11 0.005979888740944
12 -0.000003854761954
13 0.015521544699846
14 0.008249849549617
15 -0.004131838399492
16 0.19873800274140
17 -0.053750863134290
18 -0.008448931598529
19 -0.006577593818509
20 0.001417913805100
21 -0.45535032739747
22 0.12316300917107
23 0.012844004470187
24 -0.008481473156281
25 -0.003270641596567
26 0.25668773590913
27 -0.069427904610490
28 0.003850862953622
29 0.010908371047702
30 0.001854608812860
31 0.000000155623705
32 -0.000027788762322
33 -0.000018254173980
34 0.41067927188978
35 -0.20598178396499
36 0.000358849415540
37 -0.079432609117114
38 0.039851796247140
39 -0.000084210557424
40 -0.005980950537675
41 0.005969614159229
42 0.000011336378446
43 0.015544215091195
44 0.008215938839376
45 -0.004145817757794
46 -0.45565367704362
47 0.12324631512799
48 -0.012853806233798
49 0.008498048718478
50 0.003252442369216
51 0.25712857706419
52 -0.069549588390067
53 -0.003857504479741
54 -0.010923028860492
55 -0.001828426168428
56 0.19847756917178
57 -0.053685548798187
58 0.008452986754994
59 0.006570400063097
60 -0.001434216224558
 Sym=      9.1
 Ene=      -0.2512
 Spin= Alpha
 Occup=    1.706236
1 -0.001254369517838
2 0.084773930971742
3 0.034774089413080
4 -0.000280153928718
5 -0.000486156266645
6 0.56119790140362
7 -0.000028267690117
8 -0.000040477474978
9 0.058652011137735
10 -0.006062750847648
11 -0.006060672839905
12 0.012123423687554
13 0.000000641835904
14 -0.000003714254469
15 -0.000013411339469
16 -0.063169319318155
17 0.014291418620599
18 0.000031229149760
19 0.002293250170896
20 0.012836855640670
21 -0.063163569816268
22 0.014357549357697
23 0.001968857471933
24 -0.001194522752967
25 0.012838983554184
26 -0.063128537542428
27 0.014362170062924
28 -0.002016674967702
29 -0.001129570226653
30 0.012837114581656
31 -0.001254928717580
32 0.084674652342216
33 0.034755816056617
34 0.000075970721716
35 -0.000948923008672
36 -0.56119900250915
37 0.000011823372894
38 -0.000090377284495
39 -0.058663188265443
40 -0.006061834769064
41 -0.006060959700531
42 0.012122794469595
43 0.000001015897438
44 -0.000001185632403
45 0.000017804689978
46 -0.063173765911226
47 0.014315926878270
48 -0.001975464621562
49 0.001161597199342
50 -0.012840073087533
51 -0.063149743685355
52 0.014312392246728
53 0.002013937312296
54 0.001099809893895
55 -0.012839563768606
56 -0.063080275739912
57 0.014372966214509
58 -0.000034368039297
59 -0.002318934759745
60 -0.012836915727670
 Sym=     10.1
 Ene=       0.0810
 Spin= Alpha
 Occup=    0.293764
1 0.002843635202164
2 0.20409841205008
3 0.069287679923955
4 -0.000310644846371
5 -0.000599658036408
6 0.74772744291344
7 -0.000012422475867
8 -0.000022254616475
9 0.032124586610965
10 -0.007558995445382
11 -0.007557750774199
12 0.015116746219580
13 -0.000000723086113
14 -0.000013837042359
15 -0.000027579556998
16 -0.030358806645166
17 -0.002442354712537
18 0.000000089702330
19 0.000354571539769
20 0.013121714600673