 Entering Gaussian System, Link 0=g09
 Input=geom.com
 Output=geom.log
 Initial command:
 /software/cinetica/g09d1/g09d01/d01/build-node-6-2-59348/src/main/l1.exe "/scratch/cc/139150/Gau-176207.inp" -scrdir="/scratch/cc/139150/"
 Entering Link 1 = /software/cinetica/g09d1/g09d01/d01/build-node-6-2-59348/src/main/l1.exe PID=    176208.
  
 Copyright (c) 1988,1990,1992,1993,1995,1998,2003,2009,2013,
            Gaussian, Inc.  All Rights Reserved.
  
 This is part of the Gaussian(R) 09 program.  It is based on
 the Gaussian(R) 03 system (copyright 2003, Gaussian, Inc.),
 the Gaussian(R) 98 system (copyright 1998, Gaussian, Inc.),
 the Gaussian(R) 94 system (copyright 1995, Gaussian, Inc.),
 the Gaussian 92(TM) system (copyright 1992, Gaussian, Inc.),
 the Gaussian 90(TM) system (copyright 1990, Gaussian, Inc.),
 the Gaussian 88(TM) system (copyright 1988, Gaussian, Inc.),
 the Gaussian 86(TM) system (copyright 1986, Carnegie Mellon
 University), and the Gaussian 82(TM) system (copyright 1983,
 Carnegie Mellon University). Gaussian is a federally registered
 trademark of Gaussian, Inc.
  
 This software contains proprietary and confidential information,
 including trade secrets, belonging to Gaussian, Inc.
  
 This software is provided under written license and may be
 used, copied, transmitted, or stored only in accord with that
 written license.
  
 The following legend is applicable only to US Government
 contracts under FAR:
  
                    RESTRICTED RIGHTS LEGEND
  
 Use, reproduction and disclosure by the US Government is
 subject to restrictions as set forth in subparagraphs (a)
 and (c) of the Commercial Computer Software - Restricted
 Rights clause in FAR 52.227-19.
  
 Gaussian, Inc.
 340 Quinnipiac St., Bldg. 40, Wallingford CT 06492
  
  
 ---------------------------------------------------------------
 Warning -- This program may not be used in any manner that
 competes with the business of Gaussian, Inc. or will provide
 assistance to any competitor of Gaussian, Inc.  The licensee
 of this program is prohibited from giving any competitor of
 Gaussian, Inc. access to this program.  By using this program,
 the user acknowledges that Gaussian, Inc. is engaged in the
 business of creating and licensing software in the field of
 computational chemistry and represents and warrants to the
 licensee that it is not a competitor of Gaussian, Inc. and that
 it will not use this program in any manner prohibited above.
 ---------------------------------------------------------------
  

 Cite this work as:
 Gaussian 09, Revision D.01,
 M. J. Frisch, G. W. Trucks, H. B. Schlegel, G. E. Scuseria, 
 M. A. Robb, J. R. Cheeseman, G. Scalmani, V. Barone, B. Mennucci, 
 G. A. Petersson, H. Nakatsuji, M. Caricato, X. Li, H. P. Hratchian, 
 A. F. Izmaylov, J. Bloino, G. Zheng, J. L. Sonnenberg, M. Hada, 
 M. Ehara, K. Toyota, R. Fukuda, J. Hasegawa, M. Ishida, T. Nakajima, 
 Y. Honda, O. Kitao, H. Nakai, T. Vreven, J. A. Montgomery, Jr., 
 J. E. Peralta, F. Ogliaro, M. Bearpark, J. J. Heyd, E. Brothers, 
 K. N. Kudin, V. N. Staroverov, T. Keith, R. Kobayashi, J. Normand, 
 K. Raghavachari, A. Rendell, J. C. Burant, S. S. Iyengar, J. Tomasi, 
 M. Cossi, N. Rega, J. M. Millam, M. Klene, J. E. Knox, J. B. Cross, 
 V. Bakken, C. Adamo, J. Jaramillo, R. Gomperts, R. E. Stratmann, 
 O. Yazyev, A. J. Austin, R. Cammi, C. Pomelli, J. W. Ochterski, 
 R. L. Martin, K. Morokuma, V. G. Zakrzewski, G. A. Voth, 
 P. Salvador, J. J. Dannenberg, S. Dapprich, A. D. Daniels, 
 O. Farkas, J. B. Foresman, J. V. Ortiz, J. Cioslowski, 
 and D. J. Fox, Gaussian, Inc., Wallingford CT, 2013.
 
 ******************************************
 Gaussian 09:  EM64L-G09RevD.01 24-Apr-2013
                27-May-2023 
 ******************************************
 %mem=400MW
 %chk=tmp
 %NProcShared= 32
 Will use up to   32 processors via shared memory.
 ----------------------------------------------------------------------
 # uwb97xd/aug-cc-pvtz opt=(noeig,intern,maxcyc=50) # int=ultrafine nos
 ym iop(7/33=1) guess=(mix,always)
 ----------------------------------------------------------------------
 1/6=50,10=7,11=1,14=-1,18=40,26=4,38=1/1,3;
 2/12=2,15=1,17=6,18=5,29=3,40=1/2;
 3/5=16,6=1,7=10,11=2,16=1,25=1,30=1,71=1,74=-58,75=-5,116=2/1,2,3;
 4/13=-1/1;
 5/5=2,38=5/2;
 6/7=2,8=2,9=2,10=2,28=1/1;
 7/29=1,30=1,33=1/1,2,3,16;
 1/6=50,10=7,11=1,14=-1,18=40,26=4/3(2);
 2/15=1,29=3/2;
 99//99;
 2/15=1,29=3/2;
 3/5=16,6=1,7=10,11=2,16=1,25=1,30=1,71=1,74=-58,75=-5,116=2/1,2,3;
 4/13=-1/1;
 5/5=2,38=5/2;
 7/30=1,33=1/1,2,3,16;
 1/6=50,11=1,14=-1,18=40,26=4/3(-5);
 2/15=1,29=3/2;
 6/7=2,8=2,9=2,10=2,19=2,28=1/1;
 99/9=1/99;
 ------
 geom 0
 ------
 Symbolic Z-matrix:
 Charge =  0 Multiplicity = 1
 C1
 H2                   C1   R1
 H3                   C1   R2       H2   A2
 H4                   C1   R3       H2   A3       H3   D3       0
 C21                  1    rts      2    aabs1    3    babs1    0
 H22                  C21  R21      1    aabs2    2    babs2    0
 H23                  C21  R22      H22  A22      1    babs3    0
 H24                  C21  R23      H22  A23      H23  D23      0
       Variables:
  BABS3                96.9864                   
  BABS2                58.793                    
  AABS2                94.0855                   
  BABS1                97.0721                   
  AABS1                94.0238                   
       Constants:
  D3                  179.8076                   
  R21                   1.0782                   
  R22                   1.0782                   
  R23                   1.0782                   
  A22                 119.9721                   
  A23                 120.0207                   
  D23                 179.8076                   
  A3                  120.0207                   
  A2                  119.9721                   
  R3                    1.0782                   
  R2                    1.0782                   
  R1                    1.0782                   
  RTS                   3.                       
 

 GradGradGradGradGradGradGradGradGradGradGradGradGradGradGradGradGradGrad
 Berny optimization.
 Initialization pass.
                       ----------------------------
                       !    Initial Parameters    !
                       ! (Angstroms and Degrees)  !
 ----------------------                            ----------------------
 !      Name          Value   Derivative information (Atomic Units)     !
 ------------------------------------------------------------------------
 !      BABS3       96.9864   estimate D2E/DX2                          !
 !      BABS2       58.793    estimate D2E/DX2                          !
 !      AABS2       94.0855   estimate D2E/DX2                          !
 !      BABS1       97.0721   estimate D2E/DX2                          !
 !      AABS1       94.0238   estimate D2E/DX2                          !
 !       D3        179.8076   Frozen                                    !
 !       R21         1.0782   Frozen                                    !
 !       R22         1.0782   Frozen                                    !
 !       R23         1.0782   Frozen                                    !
 !       A22       119.9721   Frozen                                    !
 !       A23       120.0207   Frozen                                    !
 !       D23       179.8076   Frozen                                    !
 !       A3        120.0207   Frozen                                    !
 !       A2        119.9721   Frozen                                    !
 !       R3          1.0782   Frozen                                    !
 !       R2          1.0782   Frozen                                    !
 !       R1          1.0782   Frozen                                    !
 !       RTS         3.0      Frozen                                    !
 ------------------------------------------------------------------------
 Trust Radius=3.00D-01 FncErr=1.00D-07 GrdErr=1.00D-06
 Number of steps in this run=     50 maximum allowed number of steps=    100.
 GradGradGradGradGradGradGradGradGradGradGradGradGradGradGradGradGradGrad

 ---------------------------------------------------------------------------------------------------
                            Z-MATRIX (ANGSTROMS AND DEGREES)
   CD    Cent   Atom    N1       Length/X        N2       Alpha/Y        N3        Beta/Z          J
 ---------------------------------------------------------------------------------------------------
      1      1  C 
      2      2  H        1   1.078200(     1)
      3      3  H        1   1.078200(     2)      2  119.972(     8)
      4      4  H        1   1.078200(     3)      2  120.021(     9)      3  179.808(    14)      0
      5      5  C        1   3.000000(     4)      2   94.024(    10)      3   97.072(    15)      0
      6      6  H        5   1.078200(     5)      1   94.085(    11)      2   58.793(    16)      0
      7      7  H        5   1.078200(     6)      6  119.972(    12)      1   96.986(    17)      0
      8      8  H        5   1.078200(     7)      6  120.021(    13)      7  179.808(    18)      0
 ---------------------------------------------------------------------------------------------------
                         Z-Matrix orientation:                         
 ---------------------------------------------------------------------
 Center     Atomic      Atomic             Coordinates (Angstroms)
 Number     Number       Type             X           Y           Z
 ---------------------------------------------------------------------
      1          6           0        0.000000    0.000000    0.000000
      2          1           0        0.000000    0.000000    1.078200
      3          1           0        0.934011    0.000000   -0.538645
      4          1           0       -0.933548   -0.003135   -0.539437
      5          6           0       -0.368444   -2.969837   -0.210513
      6          1           0       -1.295536   -2.971436    0.339953
      7          1           0        0.557542   -3.196135    0.293326
      8          1           0       -0.367596   -2.745095   -1.265029
 ---------------------------------------------------------------------
                    Distance matrix (angstroms):
                    1          2          3          4          5
     1  C    0.000000
     2  H    1.078200   0.000000
     3  H    1.078200   1.867235   0.000000
     4  H    1.078200   1.867692   1.867562   0.000000
     5  C    3.000000   3.258292   3.259447   3.037903   0.000000
     6  H    3.259358   3.324583   3.817361   3.116917   1.078200
     7  H    3.257633   3.337987   3.324031   3.621063   1.078200
     8  H    3.044827   3.627863   3.123677   2.892253   1.078200
                    6          7          8
     6  H    0.000000
     7  H    1.867235   0.000000
     8  H    1.867692   1.867562   0.000000
 Symmetry turned off by external request.
 Stoichiometry    C2H6
 Framework group  C1[X(C2H6)]
 Deg. of freedom    18
 Full point group                 C1      NOp   1
 Rotational constants (GHZ):     72.6249972      7.1040573      7.1006959
 Standard basis: Aug-CC-pVTZ (5D, 7F)
   230 basis functions,   306 primitive gaussians,   260 cartesian basis functions
     9 alpha electrons        9 beta electrons
       nuclear repulsion energy        33.1339422861 Hartrees.
 NAtoms=    8 NActive=    8 NUniq=    8 SFac= 1.00D+00 NAtFMM=   60 NAOKFM=F Big=F
 Integral buffers will be    131072 words long.
 Raffenetti 2 integral format.
 Two-electron integral symmetry is turned off.
 Nuclear repulsion after empirical dispersion term =       33.1320164316 Hartrees.
 One-electron integrals computed using PRISM.
 NBasis=   230 RedAO= T EigKep=  6.31D-05  NBF=   230
 NBsUse=   230 1.00D-06 EigRej= -1.00D+00 NBFU=   230
 ExpMin= 2.53D-02 ExpMax= 8.24D+03 ExpMxC= 2.81D+02 IAcc=3 IRadAn=         5 AccDes= 0.00D+00
 Harris functional with IExCor= 4639 and IRadAn=       5 diagonalized for initial guess.
 HarFok:  IExCor= 4639 AccDes= 0.00D+00 IRadAn=         5 IDoV= 1 UseB2=F ITyADJ=14
 ICtDFT=  3500011 ScaDFX=  1.000000  1.000000  1.000000  1.000000
 FoFCou: FMM=F IPFlag=           0 FMFlag=      100000 FMFlg1=           0
         NFxFlg=           0 DoJE=T BraDBF=F KetDBF=T FulRan=T
         wScrn=  0.000000 ICntrl=     500 IOpCl=  0 I1Cent=   200000004 NGrid=           0
         NMat0=    1 NMatS0=      1 NMatT0=    0 NMatD0=    1 NMtDS0=    0 NMtDT0=    0
 Symmetry not used in FoFCou.
 Mixing orbitals, IMix= 1 IMixAn=  0 NRI=1 NE=    9 Coef=  7.07106781D-01  7.07106781D-01
 Mixing orbitals, IMix= 1 IMixAn=  0 NRI=1 NE=    9 Coef= -7.07106781D-01  7.07106781D-01
 Initial guess <Sx>= 0.0000 <Sy>= 0.0000 <Sz>= 0.0000 <S**2>= 1.0000 S= 0.6180
 Requested convergence on RMS density matrix=1.00D-08 within 128 cycles.
 Requested convergence on MAX density matrix=1.00D-06.
 Requested convergence on             energy=1.00D-06.
 No special actions if energy rises.
 SCF Done:  E(UwB97XD) =  -79.6872067512     A.U. after   11 cycles
            NFock= 11  Conv=0.48D-08     -V/T= 2.0075
 <Sx>= 0.0000 <Sy>= 0.0000 <Sz>= 0.0000 <S**2>= 0.8364 S= 0.5423
 <L.S>=  0.00000000000    
 Annihilation of the first spin contaminant:
 S**2 before annihilation     0.8364,   after     0.0394

 **********************************************************************

            Population analysis using the SCF density.

 **********************************************************************

 Alpha  occ. eigenvalues --  -10.29599 -10.28582  -0.78384  -0.73997  -0.50813
 Alpha  occ. eigenvalues --   -0.50756  -0.49360  -0.49267  -0.30970
 Alpha virt. eigenvalues --    0.00985   0.03301   0.04645   0.04691   0.05607
 Alpha virt. eigenvalues --    0.06887   0.07010   0.10968   0.12028   0.12250
 Alpha virt. eigenvalues --    0.13109   0.14089   0.14191   0.15430   0.16242
 Alpha virt. eigenvalues --    0.19751   0.19932   0.21906   0.22009   0.23834
 Alpha virt. eigenvalues --    0.24008   0.28691   0.30200   0.31075   0.31289
 Alpha virt. eigenvalues --    0.32053   0.32098   0.35127   0.35360   0.35695
 Alpha virt. eigenvalues --    0.35943   0.36202   0.36393   0.37832   0.39151
 Alpha virt. eigenvalues --    0.39171   0.39606   0.41140   0.41310   0.41399
 Alpha virt. eigenvalues --    0.41712   0.41804   0.43849   0.44303   0.46444
 Alpha virt. eigenvalues --    0.47408   0.48131   0.48768   0.49252   0.54762
 Alpha virt. eigenvalues --    0.66497   0.70208   0.71128   0.71376   0.71806
 Alpha virt. eigenvalues --    0.71921   0.75544   0.76279   0.77597   0.77804
 Alpha virt. eigenvalues --    0.79355   0.79974   0.81124   0.82289   0.82991
 Alpha virt. eigenvalues --    0.84065   0.86102   0.86501   0.88667   0.90104
 Alpha virt. eigenvalues --    0.90304   0.92192   0.92956   0.93453   0.93919
 Alpha virt. eigenvalues --    0.97869   1.01455   1.01497   1.02544   1.02938
 Alpha virt. eigenvalues --    1.03217   1.04849   1.05660   1.08684   1.09418
 Alpha virt. eigenvalues --    1.09532   1.10612   1.11416   1.11892   1.14524
 Alpha virt. eigenvalues --    1.15935   1.16920   1.22023   1.22217   1.22970
 Alpha virt. eigenvalues --    1.23629   1.31125   1.32676   1.39248   1.40969
 Alpha virt. eigenvalues --    1.42392   1.43326   1.47652   1.49851   1.51105
 Alpha virt. eigenvalues --    1.51251   1.51571   1.51867   1.53181   1.53234
 Alpha virt. eigenvalues --    1.55086   1.58068   1.60133   1.62398   1.63660
 Alpha virt. eigenvalues --    1.64265   1.65026   1.74141   1.80646   1.80670
 Alpha virt. eigenvalues --    1.81191   1.81550   1.82516   1.89604   1.97041
 Alpha virt. eigenvalues --    1.99162   2.00195   2.01909   2.06716   2.08348
 Alpha virt. eigenvalues --    2.08623   2.08907   2.10070   2.10641   2.14651
 Alpha virt. eigenvalues --    2.77008   2.78832   2.88766   2.92394   2.95078
 Alpha virt. eigenvalues --    2.96846   2.99638   3.03146   3.04254   3.06646
 Alpha virt. eigenvalues --    3.14489   3.19931   3.35757   3.35965   3.36658
 Alpha virt. eigenvalues --    3.37978   3.39054   3.39552   3.40426   3.42463
 Alpha virt. eigenvalues --    3.43632   3.44187   3.46641   3.49142   3.51003
 Alpha virt. eigenvalues --    3.51707   3.52649   3.53884   3.60391   3.68539
 Alpha virt. eigenvalues --    3.72164   3.74438   3.75063   3.76081   3.76835
 Alpha virt. eigenvalues --    3.77557   3.79366   3.91811   4.02945   4.04660
 Alpha virt. eigenvalues --    4.06255   4.07560   4.16049   4.17628   4.18194
 Alpha virt. eigenvalues --    4.20341   4.20621   4.22803   4.44414   4.54602
 Alpha virt. eigenvalues --    4.56708   4.60545   4.60878   4.61455   4.61754
 Alpha virt. eigenvalues --    4.62114   4.65851   4.67896   4.75398   4.80645
 Alpha virt. eigenvalues --    4.84452   4.87947   5.05369   5.05457   5.06144
 Alpha virt. eigenvalues --    5.06216   5.12043   5.12368   5.14740   5.15121
 Alpha virt. eigenvalues --    5.18752   5.19572   5.19951   5.21394   5.28886
 Alpha virt. eigenvalues --    5.34741   6.06552   6.11530   6.24784   6.25380
 Alpha virt. eigenvalues --    6.26019   6.26730   6.40357   6.43420  16.03662
 Alpha virt. eigenvalues --   16.16960
  Beta  occ. eigenvalues --  -10.29602 -10.28579  -0.78387  -0.73994  -0.50815
  Beta  occ. eigenvalues --   -0.50761  -0.49356  -0.49267  -0.30973
  Beta virt. eigenvalues --    0.00986   0.03301   0.04645   0.04691   0.05608
  Beta virt. eigenvalues --    0.06887   0.07011   0.10970   0.12030   0.12251
  Beta virt. eigenvalues --    0.13108   0.14091   0.14191   0.15433   0.16246
  Beta virt. eigenvalues --    0.19751   0.19932   0.21907   0.22007   0.23836
  Beta virt. eigenvalues --    0.24012   0.28683   0.30210   0.31075   0.31288
  Beta virt. eigenvalues --    0.32053   0.32096   0.35129   0.35357   0.35693
  Beta virt. eigenvalues --    0.35945   0.36218   0.36375   0.37832   0.39149
  Beta virt. eigenvalues --    0.39172   0.39612   0.41136   0.41306   0.41391
  Beta virt. eigenvalues --    0.41718   0.41813   0.43848   0.44305   0.46444
  Beta virt. eigenvalues --    0.47411   0.48135   0.48767   0.49250   0.54763
  Beta virt. eigenvalues --    0.66502   0.70207   0.71125   0.71380   0.71800
  Beta virt. eigenvalues --    0.71918   0.75535   0.76292   0.77602   0.77805
  Beta virt. eigenvalues --    0.79341   0.79971   0.81136   0.82290   0.82986
  Beta virt. eigenvalues --    0.84083   0.86134   0.86457   0.88658   0.90092
  Beta virt. eigenvalues --    0.90318   0.92198   0.92956   0.93452   0.93917
  Beta virt. eigenvalues --    0.97869   1.01459   1.01488   1.02540   1.02942
  Beta virt. eigenvalues --    1.03228   1.04844   1.05660   1.08676   1.09420
  Beta virt. eigenvalues --    1.09539   1.10607   1.11418   1.11901   1.14522
  Beta virt. eigenvalues --    1.15928   1.16928   1.22020   1.22227   1.22966
  Beta virt. eigenvalues --    1.23625   1.31123   1.32678   1.39251   1.40973
  Beta virt. eigenvalues --    1.42392   1.43315   1.47653   1.49844   1.51121
  Beta virt. eigenvalues --    1.51250   1.51560   1.51866   1.53181   1.53232
  Beta virt. eigenvalues --    1.55083   1.58067   1.60132   1.62378   1.63671
  Beta virt. eigenvalues --    1.64259   1.65056   1.74142   1.80661   1.80687
  Beta virt. eigenvalues --    1.81170   1.81531   1.82527   1.89605   1.97032
  Beta virt. eigenvalues --    1.99202   2.00153   2.01917   2.06718   2.08340
  Beta virt. eigenvalues --    2.08613   2.08905   2.10092   2.10639   2.14650
  Beta virt. eigenvalues --    2.77001   2.78871   2.88722   2.92481   2.95075
  Beta virt. eigenvalues --    2.96804   2.99641   3.03090   3.04264   3.06637
  Beta virt. eigenvalues --    3.14505   3.19937   3.35765   3.35959   3.36694
  Beta virt. eigenvalues --    3.37952   3.39058   3.39545   3.40430   3.42448
  Beta virt. eigenvalues --    3.43636   3.44182   3.46650   3.49148   3.51015
  Beta virt. eigenvalues --    3.51663   3.52630   3.53894   3.60418   3.68539
  Beta virt. eigenvalues --    3.72164   3.74453   3.75071   3.76078   3.76853
  Beta virt. eigenvalues --    3.77518   3.79367   3.91811   4.02943   4.04652
  Beta virt. eigenvalues --    4.06161   4.07657   4.16048   4.17632   4.18219
  Beta virt. eigenvalues --    4.20300   4.20636   4.22807   4.44417   4.54603
  Beta virt. eigenvalues --    4.56711   4.60540   4.60892   4.61457   4.61736
  Beta virt. eigenvalues --    4.62110   4.65853   4.67901   4.75398   4.80634
  Beta virt. eigenvalues --    4.84461   4.87948   5.05373   5.05432   5.06141
  Beta virt. eigenvalues --    5.06236   5.12111   5.12411   5.14636   5.15080
  Beta virt. eigenvalues --    5.18761   5.19524   5.19988   5.21429   5.28893
  Beta virt. eigenvalues --    5.34735   6.06560   6.11524   6.24834   6.25330
  Beta virt. eigenvalues --    6.26030   6.26719   6.40358   6.43418  16.03661
  Beta virt. eigenvalues --   16.16962
          Condensed to atoms (all electrons):
               1          2          3          4          5          6
     1  C    6.042017   0.337979   0.335977   0.326133   0.051884  -0.000540
     2  H    0.337979   0.283835   0.010370   0.011135  -0.002026  -0.000476
     3  H    0.335977   0.010370   0.282416   0.010160  -0.000545  -0.000525
     4  H    0.326133   0.011135   0.010160   0.288824  -0.000946  -0.000622
     5  C    0.051884  -0.002026  -0.000545  -0.000946   6.041548   0.336076
     6  H   -0.000540  -0.000476  -0.000525  -0.000622   0.336076   0.282403
     7  H   -0.002062  -0.000482  -0.000475  -0.000662   0.338170   0.010382
     8  H   -0.001032  -0.000663  -0.000626  -0.000860   0.326333   0.010116
               7          8
     1  C   -0.002062  -0.001032
     2  H   -0.000482  -0.000663
     3  H   -0.000475  -0.000626
     4  H   -0.000662  -0.000860
     5  C    0.338170   0.326333
     6  H    0.010382   0.010116
     7  H    0.283880   0.011136
     8  H    0.011136   0.288457
          Atomic-Atomic Spin Densities.
               1          2          3          4          5          6
     1  C    0.954412   0.005953   0.004676   0.002300   0.000144  -0.003094
     2  H    0.005953  -0.028117   0.002651   0.003002   0.004201   0.000156
     3  H    0.004676   0.002651  -0.027872   0.003222   0.003117   0.000001
     4  H    0.002300   0.003002   0.003222  -0.026420   0.003657  -0.000020
     5  C    0.000144   0.004201   0.003117   0.003657  -0.954485  -0.004744
     6  H   -0.003094   0.000156   0.000001  -0.000020  -0.004744   0.027964
     7  H   -0.004193  -0.000004  -0.000157  -0.000120  -0.005955  -0.002639
     8  H   -0.003679   0.000108   0.000017  -0.000009  -0.002600  -0.003178
               7          8
     1  C   -0.004193  -0.003679
     2  H   -0.000004   0.000108
     3  H   -0.000157   0.000017
     4  H   -0.000120  -0.000009
     5  C   -0.005955  -0.002600
     6  H   -0.002639  -0.003178
     7  H    0.028225  -0.002949
     8  H   -0.002949   0.026564
 Mulliken charges and spin densities:
               1          2
     1  C   -1.090357   0.956519
     2  H    0.360328  -0.012050
     3  H    0.363245  -0.014345
     4  H    0.366838  -0.014387
     5  C   -1.090494  -0.956665
     6  H    0.363185   0.014446
     7  H    0.360114   0.012209
     8  H    0.367140   0.014273
 Sum of Mulliken charges =  -0.00000   0.00000
 Mulliken charges and spin densities with hydrogens summed into heavy atoms:
               1          2
     1  C    0.000055   0.915737
     5  C   -0.000055  -0.915737
 Electronic spatial extent (au):  <R**2>=            349.1341
 Charge=             -0.0000 electrons
 Dipole moment (field-independent basis, Debye):
    X=             -0.0021    Y=             -0.0036    Z=             -0.0035  Tot=              0.0055
 Quadrupole moment (field-independent basis, Debye-Ang):
   XX=            -14.4665   YY=            -17.9504   ZZ=            -14.5268
   XY=             -0.1894   XZ=             -0.0489   YZ=             -0.3670
 Traceless Quadrupole moment (field-independent basis, Debye-Ang):
   XX=              1.1814   YY=             -2.3025   ZZ=              1.1211
   XY=             -0.1894   XZ=             -0.0489   YZ=             -0.3670
 Octapole moment (field-independent basis, Debye-Ang**2):
  XXX=              7.9947  YYY=             79.4445  ZZZ=              4.6550  XYY=              4.6264
  XXY=             21.4961  XXZ=              1.5213  XZZ=              2.6654  YZZ=             22.0633
  YYZ=              4.1662  XYZ=              0.2348
 Hexadecapole moment (field-independent basis, Debye-Ang**3):
 XXXX=            -35.7763 YYYY=           -497.1642 ZZZZ=            -31.0959 XXXY=            -23.5986
 XXXZ=             -2.6787 YYYX=            -35.2763 YYYZ=            -26.3974 ZZZX=             -1.3575
 ZZZY=            -11.2182 XXYY=            -74.7504 XXZZ=            -11.6309 YYZZ=            -76.6449
 XXYZ=             -7.2103 YYXZ=             -1.6130 ZZXY=             -7.9977
 N-N= 3.313201643162D+01 E-N=-2.500554806591D+02  KE= 7.909431011703D+01
                          Isotropic Fermi Contact Couplings
        Atom                 a.u.       MegaHertz       Gauss      10(-4) cm-1
     1  C(13)              0.00624       3.50744       1.25154       1.16996
     2  H(1)              -0.01332     -29.77053     -10.62286      -9.93038
     3  H(1)              -0.01320     -29.50709     -10.52886      -9.84251
     4  H(1)              -0.01373     -30.68815     -10.95030     -10.23647
     5  C(13)             -0.00638      -3.58670      -1.27983      -1.19640
     6  H(1)               0.01321      29.51862      10.53298       9.84635
     7  H(1)               0.01333      29.79926      10.63312       9.93996
     8  H(1)               0.01371      30.64605      10.93527      10.22242
 --------------------------------------------------------
       Center         ----  Spin Dipole Couplings  ----
                      3XX-RR        3YY-RR        3ZZ-RR
 --------------------------------------------------------
     1   Atom       -0.519588      1.038564     -0.518977
     2   Atom       -0.066859     -0.004211      0.071070
     3   Atom        0.035841     -0.003869     -0.031972
     4   Atom        0.038332     -0.007387     -0.030945
     5   Atom        0.495467     -0.948199      0.452732
     6   Atom       -0.035639      0.008038      0.027601
     7   Atom       -0.037351      0.003981      0.033370
     8   Atom        0.064692      0.003449     -0.068140
 --------------------------------------------------------
                        XY            XZ            YZ
 --------------------------------------------------------
     1   Atom       -0.002369     -0.000416     -0.000481
     2   Atom       -0.001392     -0.000863     -0.004497
     3   Atom       -0.004488     -0.060031      0.001250
     4   Atom        0.002470      0.059830      0.001721
     5   Atom       -0.184984     -0.039620     -0.313770
     6   Atom       -0.004225      0.058928     -0.015733
     7   Atom        0.014367     -0.057610     -0.002171
     8   Atom       -0.006824     -0.000844      0.019019
 --------------------------------------------------------


 ---------------------------------------------------------------------------------
              Anisotropic Spin Dipole Couplings in Principal Axis System
 ---------------------------------------------------------------------------------

       Atom             a.u.   MegaHertz   Gauss  10(-4) cm-1        Axes

              Baa    -0.5198   -69.752   -24.889   -23.267  0.8927  0.0015  0.4507
     1 C(13)  Bbb    -0.5188   -69.614   -24.840   -23.221 -0.4507 -0.0004  0.8927
              Bcc     1.0386   139.366    49.729    46.487 -0.0015  1.0000 -0.0003
 
              Baa    -0.0669   -35.693   -12.736   -11.906  0.9997  0.0227  0.0070
     2 H(1)   Bbb    -0.0044    -2.372    -0.846    -0.791 -0.0231  0.9980  0.0592
              Bcc     0.0713    38.065    13.582    12.697 -0.0056 -0.0593  0.9982
 
              Baa    -0.0670   -35.765   -12.762   -11.930  0.5045  0.0188  0.8632
     3 H(1)   Bbb    -0.0041    -2.197    -0.784    -0.733  0.0423  0.9980 -0.0464
              Bcc     0.0712    37.962    13.546    12.663  0.8624 -0.0600 -0.5027
 
              Baa    -0.0654   -34.916   -12.459   -11.647 -0.4994 -0.0044  0.8664
     4 H(1)   Bbb    -0.0075    -4.001    -1.428    -1.334 -0.0345  0.9993 -0.0148
              Bcc     0.0729    38.917    13.887    12.981  0.8657  0.0373  0.4992
 
              Baa    -1.0386  -139.369   -49.730   -46.489  0.1224  0.9706  0.2075
     5 C(13)  Bbb     0.5188    69.617    24.841    23.222  0.9894 -0.1357  0.0511
              Bcc     0.5198    69.753    24.889    23.267 -0.0778 -0.1990  0.9769
 
              Baa    -0.0712   -37.962   -13.546   -12.663  0.8533 -0.0575 -0.5183
     6 H(1)   Bbb     0.0041     2.199     0.785     0.734  0.1813  0.9646  0.1915
              Bcc     0.0670    35.763    12.761    11.929  0.4890 -0.2573  0.8335
 
              Baa    -0.0713   -38.068   -13.584   -12.698  0.8673 -0.1518  0.4740
     7 H(1)   Bbb     0.0045     2.381     0.850     0.794  0.0627  0.9781  0.1984
              Bcc     0.0669    35.688    12.734    11.904 -0.4937 -0.1424  0.8579
 
              Baa    -0.0729   -38.888   -13.876   -12.972 -0.0061 -0.2423  0.9702
     8 H(1)   Bbb     0.0074     3.935     1.404     1.313  0.1182  0.9632  0.2413
              Bcc     0.0655    34.953    12.472    11.659  0.9930 -0.1162 -0.0228
 

 ---------------------------------------------------------------------------------

 DipInt: DoE/N= T T RetVal/Mat= T F Init=T NMatP=  1 IDeriv=0 Min/MaxMlt=  1  1
 Entering OneElI...
 Multipole integrals L=1 to 1 MinM= 0 MaxM= 0.
 Requested accuracy = 0.1000D-12
 PrsmSu:  NPrtUS=   1 ThrOK=F IAlg=1 NPAlg=1 LenDen=           0.
 Prism:   IPart=     0 DynPar=F LinDyn=F Incr=          34.
 PRISM was handed   419150739 working-precision words and  3402 shell-pairs
 IPart=  0 NShTot=        3402 NBatch=          46 AvBLen=        74.0
 PrSmSu:  NxtVal=             35.
 Entering OneElI...
 Calculate overlap and kinetic energy integrals
    NBasis = 260  MinDer = 1  MaxDer = 1
 Requested accuracy = 0.1000D-12
 PrsmSu:  NPrtUS=  32 ThrOK=T IAlg=1 NPAlg=1 LenDen=           0.
 Prism:   IPart=     0 DynPar=F LinDyn=F Incr=           1.
 PRISM was handed    13041767 working-precision words and  3403 shell-pairs
 PRISM was handed    13041767 working-precision words and  3403 shell-pairs
 PRISM was handed    13041767 working-precision words and  3403 shell-pairs
 PRISM was handed    13041767 working-precision words and  3403 shell-pairs
 PRISM was handed    13041767 working-precision words and  3403 shell-pairs
 PRISM was handed    13041767 working-precision words and  3403 shell-pairs
 PRISM was handed    13041767 working-precision words and  3403 shell-pairs
 PRISM was handed    13041767 working-precision words and  3403 shell-pairs
 PRISM was handed    13041767 working-precision words and  3403 shell-pairs
 PRISM was handed    13041767 working-precision words and  3403 shell-pairs
 PRISM was handed    13041767 working-precision words and  3403 shell-pairs
 PRISM was handed    13041767 working-precision words and  3403 shell-pairs
 PRISM was handed    13041767 working-precision words and  3403 shell-pairs
 PRISM was handed    13041767 working-precision words and  3403 shell-pairs
 PRISM was handed    13041767 working-precision words and  3403 shell-pairs
 PRISM was handed    13041767 working-precision words and  3403 shell-pairs
 PRISM was handed    13041767 working-precision words and  3403 shell-pairs
 PRISM was handed    13041767 working-precision words and  3403 shell-pairs
 PRISM was handed    13041767 working-precision words and  3403 shell-pairs
 PRISM was handed    13041767 working-precision words and  3403 shell-pairs
 PRISM was handed    13041767 working-precision words and  3403 shell-pairs
 PRISM was handed    13041767 working-precision words and  3403 shell-pairs
 PRISM was handed    13041767 working-precision words and  3403 shell-pairs
 PRISM was handed    13041767 working-precision words and  3403 shell-pairs
 PRISM was handed    13041767 working-precision words and  3403 shell-pairs
 PRISM was handed    13041767 working-precision words and  3403 shell-pairs
 PRISM was handed    13041767 working-precision words and  3403 shell-pairs
 PRISM was handed    13041767 working-precision words and  3403 shell-pairs
 PRISM was handed    13041767 working-precision words and  3403 shell-pairs
 PRISM was handed    13041767 working-precision words and  3403 shell-pairs
 PRISM was handed    13041767 working-precision words and  3403 shell-pairs
 PRISM was handed    13041767 working-precision words and  3403 shell-pairs
 IPart= 29 NShTot=          96 NBatch=          20 AvBLen=         4.8
 IPart= 25 NShTot=          96 NBatch=          20 AvBLen=         4.8
 IPart=  0 NShTot=         134 NBatch=          42 AvBLen=         3.2
 IPart= 19 NShTot=          98 NBatch=          21 AvBLen=         4.7
 IPart=  4 NShTot=         121 NBatch=          32 AvBLen=         3.8
 IPart=  6 NShTot=         117 NBatch=          28 AvBLen=         4.2
 IPart= 27 NShTot=          96 NBatch=          20 AvBLen=         4.8
 IPart= 12 NShTot=         107 NBatch=          22 AvBLen=         4.9
 IPart= 18 NShTot=          98 NBatch=          21 AvBLen=         4.7
 IPart= 10 NShTot=         110 NBatch=          22 AvBLen=         5.0
 IPart= 21 NShTot=          98 NBatch=          21 AvBLen=         4.7
 IPart= 14 NShTot=         105 NBatch=          21 AvBLen=         5.0
 IPart= 16 NShTot=          98 NBatch=          21 AvBLen=         4.7
 IPart=  2 NShTot=         124 NBatch=          32 AvBLen=         3.9
 IPart=  8 NShTot=         112 NBatch=          24 AvBLen=         4.7
 IPart= 23 NShTot=          97 NBatch=          21 AvBLen=         4.6
 IPart= 28 NShTot=          96 NBatch=          20 AvBLen=         4.8
 IPart=  9 NShTot=         111 NBatch=          23 AvBLen=         4.8
 IPart= 26 NShTot=          96 NBatch=          20 AvBLen=         4.8
 IPart= 31 NShTot=          95 NBatch=          20 AvBLen=         4.8
 IPart= 30 NShTot=          95 NBatch=          20 AvBLen=         4.8
 IPart= 11 NShTot=         109 NBatch=          22 AvBLen=         5.0
 IPart= 17 NShTot=          98 NBatch=          21 AvBLen=         4.7
 IPart= 15 NShTot=         105 NBatch=          21 AvBLen=         5.0
 IPart=  5 NShTot=         121 NBatch=          32 AvBLen=         3.8
 IPart=  3 NShTot=         124 NBatch=          32 AvBLen=         3.9
 IPart=  7 NShTot=         117 NBatch=          28 AvBLen=         4.2
 IPart=  1 NShTot=         132 NBatch=          40 AvBLen=         3.3
 IPart= 20 NShTot=          98 NBatch=          21 AvBLen=         4.7
 IPart= 22 NShTot=          97 NBatch=          21 AvBLen=         4.6
 IPart= 24 NShTot=          96 NBatch=          20 AvBLen=         4.8
 IPart= 13 NShTot=         106 NBatch=          22 AvBLen=         4.8
 PrSmSu:  NxtVal=             33.
 Entering OneElI...
 Calculate potential energy integrals
    NBasis = 260  MinDer = 1  MaxDer = 1
 Requested accuracy = 0.1000D-12
 PrsmSu:  NPrtUS=  32 ThrOK=T IAlg=1 NPAlg=1 LenDen=           0.
 Prism:   IPart=     0 DynPar=F LinDyn=F Incr=           8.
 PRISM was handed    13048017 working-precision words and  3367 shell-pairs
 PRISM was handed    13048017 working-precision words and  3367 shell-pairs
 PRISM was handed    13048017 working-precision words and  3367 shell-pairs
 PRISM was handed    13048017 working-precision words and  3367 shell-pairs
 PRISM was handed    13048017 working-precision words and  3367 shell-pairs
 PRISM was handed    13048017 working-precision words and  3367 shell-pairs
 PRISM was handed    13048017 working-precision words and  3367 shell-pairs
 PRISM was handed    13048017 working-precision words and  3367 shell-pairs
 PRISM was handed    13048017 working-precision words and  3367 shell-pairs
 PRISM was handed    13048017 working-precision words and  3367 shell-pairs
 PRISM was handed    13048017 working-precision words and  3367 shell-pairs
 PRISM was handed    13048017 working-precision words and  3367 shell-pairs
 PRISM was handed    13048017 working-precision words and  3367 shell-pairs
 PRISM was handed    13048017 working-precision words and  3367 shell-pairs
 PRISM was handed    13048017 working-precision words and  3367 shell-pairs
 PRISM was handed    13048017 working-precision words and  3367 shell-pairs
 PRISM was handed    13048017 working-precision words and  3367 shell-pairs
 PRISM was handed    13048017 working-precision words and  3367 shell-pairs
 PRISM was handed    13048017 working-precision words and  3367 shell-pairs
 PRISM was handed    13048017 working-precision words and  3367 shell-pairs
 PRISM was handed    13048017 working-precision words and  3367 shell-pairs
 PRISM was handed    13048017 working-precision words and  3367 shell-pairs
 PRISM was handed    13048017 working-precision words and  3367 shell-pairs
 PRISM was handed    13048017 working-precision words and  3367 shell-pairs
 PRISM was handed    13048017 working-precision words and  3367 shell-pairs
 PRISM was handed    13048017 working-precision words and  3367 shell-pairs
 PRISM was handed    13048017 working-precision words and  3367 shell-pairs
 PRISM was handed    13048017 working-precision words and  3367 shell-pairs
 PRISM was handed    13048017 working-precision words and  3367 shell-pairs
 PRISM was handed    13048017 working-precision words and  3367 shell-pairs
 PRISM was handed    13048017 working-precision words and  3367 shell-pairs
 PRISM was handed    13048017 working-precision words and  3367 shell-pairs
 IPart= 21 NShTot=         784 NBatch=          98 AvBLen=         8.0
 IPart= 18 NShTot=         792 NBatch=          99 AvBLen=         8.0
 IPart= 16 NShTot=         792 NBatch=          99 AvBLen=         8.0
 IPart=  0 NShTot=        1056 NBatch=         132 AvBLen=         8.0
 IPart= 10 NShTot=         864 NBatch=         108 AvBLen=         8.0
 IPart= 25 NShTot=         768 NBatch=          96 AvBLen=         8.0
 IPart= 23 NShTot=         784 NBatch=          98 AvBLen=         8.0
 IPart= 19 NShTot=         792 NBatch=          99 AvBLen=         8.0
 IPart=  4 NShTot=         976 NBatch=         122 AvBLen=         8.0
 IPart= 14 NShTot=         808 NBatch=         101 AvBLen=         8.0
 IPart=  8 NShTot=         888 NBatch=         111 AvBLen=         8.0
 IPart=  6 NShTot=         928 NBatch=         116 AvBLen=         8.0
 IPart= 29 NShTot=         736 NBatch=          92 AvBLen=         8.0
 IPart= 27 NShTot=         760 NBatch=          95 AvBLen=         8.0
 IPart= 12 NShTot=         824 NBatch=         103 AvBLen=         8.0
 IPart= 28 NShTot=         744 NBatch=          93 AvBLen=         8.0
 IPart= 31 NShTot=         736 NBatch=          92 AvBLen=         8.0
 IPart= 30 NShTot=         736 NBatch=          92 AvBLen=         8.0
 IPart= 26 NShTot=         760 NBatch=          95 AvBLen=         8.0
 IPart=  9 NShTot=         888 NBatch=         111 AvBLen=         8.0
 IPart= 11 NShTot=         848 NBatch=         106 AvBLen=         8.0
 IPart= 17 NShTot=         792 NBatch=          99 AvBLen=         8.0
 IPart= 15 NShTot=         808 NBatch=         101 AvBLen=         8.0
 IPart=  5 NShTot=         976 NBatch=         122 AvBLen=         8.0
 IPart=  3 NShTot=         984 NBatch=         123 AvBLen=         8.0
 IPart=  7 NShTot=         920 NBatch=         115 AvBLen=         8.0
 IPart=  1 NShTot=        1048 NBatch=         131 AvBLen=         8.0
 IPart= 20 NShTot=         784 NBatch=          98 AvBLen=         8.0
 IPart= 22 NShTot=         784 NBatch=          98 AvBLen=         8.0
 IPart= 24 NShTot=         768 NBatch=          96 AvBLen=         8.0
 IPart= 13 NShTot=         824 NBatch=         103 AvBLen=         8.0
 IPart=  2 NShTot=         984 NBatch=         123 AvBLen=         8.0
 PrSmSu:  NxtVal=            257.
 l701 out
 I=    0 X=  -8.217249847827D-04 Y=  -1.430395136159D-03 Z=  -1.375997143790D-03
 I=    1 X=   2.205145032410D-01 Y=   1.621904707762D+00 Z=   1.246138492847D-01
 I=    2 X=   3.271455471483D-02 Y=   2.604802029377D-01 Z=   2.888112497956D+00
 I=    3 X=   2.508056184521D+00 Y=   2.768061173730D-01 Z=  -1.416349412742D+00
 I=    4 X=  -2.451560849701D+00 Y=   3.040875773786D-01 Z=  -1.423960381802D+00
 I=    5 X=  -2.016843448812D-01 Y=  -1.612130755119D+00 Z=  -9.243856729052D-02
 I=    6 X=  -2.498551100951D+00 Y=  -2.791741982315D-01 Z=   1.433924033170D+00
 I=    7 X=   2.433037379302D+00 Y=  -8.628821182434D-01 Z=   1.323412138047D+00
 I=    8 X=  -4.252632624596D-02 Y=   2.909084661426D-01 Z=  -2.837314156623D+00
 ICntrl=      2127.
 Calling FoFJK, ICntrl=      2127 FMM=F ISym2X=0 I1Cent= 0 IOpClX= 1 NMat=1 NMatS=1 NMatT=0.
 FoFJK:  IHMeth= 1 ICntrl=    2127 DoSepK=T KAlg= 0 I1Cent=   0 FoldK=F
 IRaf=         1 NMat=   1 IRICut=       1 DoRegI=T DoRafI=F ISym2E= 0.
 FoFCou: FMM=F IPFlag=           0 FMFlag=      100000 FMFlg1=         800
         NFxFlg=           0 DoJE=F BraDBF=F KetDBF=F FulRan=T
         wScrn=  0.000000 ICntrl=    2527 IOpCl=  0 I1Cent=           0 NGrid=           0
         NMat0=    1 NMatS0=      1 NMatT0=    0 NMatD0=    1 NMtDS0=    0 NMtDT0=    0
 Symmetry not used in FoFCou.
 FoFCou:  KetSym=F NOpSet=  1 NOpAb=1 NOp=  1.
 FoFCou:  CnvScl= 1.00D+00 Thresh= 1.00D-10 IAcrcy=      10.
 PrismS was handed   419080752 working-precision words and  3397 shell-pairs
 FoFCou: LinMIO=F DoNuc=F BraDBF=F KetDBF=F HaveP=T PDBF=F HaveZ=T HaveW=F
         NIJTC =      10 NIJTAt=       0 NIJTCD=       0 NIJTT =      10
         IJTBeg=       1 IJTEnd=      10 KLTBeg=       1 KLTEnd=      10
         IPTBeg=       1 IPTEnd=      10 IPTBCv=       1 IPTECv=      10
         IZTBeg=       1 IZTEnd=      10 IZTBCv=       1 IZTECv=      10
         IWTBeg=      11 IWTEnd=      10 IWTBCv=      11 IWTECv=      10
         INTBeg=       1 INTEnd=       0 IFTBCv=       1 IFTECv=      10
 NCel replicated for PrismC:     1
 CoulSu:  IncDef=  1024 NBBP=        5771503 NTPThr=   100 NPartT=   32 Incr=        1024 LDynOK=F.
 CoulSu:  NPrtUS=  32 ThrOK=T IAlg=1 NPAlg=1 LenDen=           0 LWGrdD=           0 DoCopy=F.
 Enter PrismC: JobTyp=21 DoJE=F Cont=F.
 PrismC:  IPart=     0 DynPar=T LinDyn=F Incr=        1024 UseFst=F UseS4=T IGathr=2.
 PrismC was handed    13044802 working-precision words and  3397 shell-pairs
 Enter PrismC: JobTyp=21 DoJE=F Cont=F.
 Enter PrismC: JobTyp=21 DoJE=F Cont=F.
 Enter PrismC: JobTyp=21 DoJE=F Cont=F.
 Enter PrismC: JobTyp=21 DoJE=F Cont=F.
 Enter PrismC: JobTyp=21 DoJE=F Cont=F.
 Enter PrismC: JobTyp=21 DoJE=F Cont=F.
 Enter PrismC: JobTyp=21 DoJE=F Cont=F.
 Enter PrismC: JobTyp=21 DoJE=F Cont=F.
 Enter PrismC: JobTyp=21 DoJE=F Cont=F.
 Enter PrismC: JobTyp=21 DoJE=F Cont=F.
 Enter PrismC: JobTyp=21 DoJE=F Cont=F.
 Enter PrismC: JobTyp=21 DoJE=F Cont=F.
 Enter PrismC: JobTyp=21 DoJE=F Cont=F.
 PrismC was handed    13044802 working-precision words and  3397 shell-pairs
 Enter PrismC: JobTyp=21 DoJE=F Cont=F.
 PrismC was handed    13044802 working-precision words and  3397 shell-pairs
 Enter PrismC: JobTyp=21 DoJE=F Cont=F.
 PrismC was handed    13044802 working-precision words and  3397 shell-pairs
 Enter PrismC: JobTyp=21 DoJE=F Cont=F.
 PrismC was handed    13044802 working-precision words and  3397 shell-pairs
 Enter PrismC: JobTyp=21 DoJE=F Cont=F.
 PrismC was handed    13044802 working-precision words and  3397 shell-pairs
 Enter PrismC: JobTyp=21 DoJE=F Cont=F.
 PrismC was handed    13044802 working-precision words and  3397 shell-pairs
 Enter PrismC: JobTyp=21 DoJE=F Cont=F.
 PrismC was handed    13044802 working-precision words and  3397 shell-pairs
 Enter PrismC: JobTyp=21 DoJE=F Cont=F.
 PrismC was handed    13044802 working-precision words and  3397 shell-pairs
 Enter PrismC: JobTyp=21 DoJE=F Cont=F.
 PrismC was handed    13044802 working-precision words and  3397 shell-pairs
 Enter PrismC: JobTyp=21 DoJE=F Cont=F.
 PrismC was handed    13044802 working-precision words and  3397 shell-pairs
 Enter PrismC: JobTyp=21 DoJE=F Cont=F.
 PrismC was handed    13044802 working-precision words and  3397 shell-pairs
 Enter PrismC: JobTyp=21 DoJE=F Cont=F.
 PrismC was handed    13044802 working-precision words and  3397 shell-pairs
 Enter PrismC: JobTyp=21 DoJE=F Cont=F.
 PrismC was handed    13044802 working-precision words and  3397 shell-pairs
 Enter PrismC: JobTyp=21 DoJE=F Cont=F.
 PrismC was handed    13044802 working-precision words and  3397 shell-pairs
 Enter PrismC: JobTyp=21 DoJE=F Cont=F.
 PrismC was handed    13044802 working-precision words and  3397 shell-pairs
 Enter PrismC: JobTyp=21 DoJE=F Cont=F.
 PrismC was handed    13044802 working-precision words and  3397 shell-pairs
 Enter PrismC: JobTyp=21 DoJE=F Cont=F.
 PrismC was handed    13044802 working-precision words and  3397 shell-pairs
 Enter PrismC: JobTyp=21 DoJE=F Cont=F.
 PrismC was handed    13044802 working-precision words and  3397 shell-pairs
 PrismC was handed    13044802 working-precision words and  3397 shell-pairs
 PrismC was handed    13044802 working-precision words and  3397 shell-pairs
 PrismC was handed    13044802 working-precision words and  3397 shell-pairs
 PrismC was handed    13044802 working-precision words and  3397 shell-pairs
 PrismC was handed    13044802 working-precision words and  3397 shell-pairs
 PrismC was handed    13044802 working-precision words and  3397 shell-pairs
 PrismC was handed    13044802 working-precision words and  3397 shell-pairs
 PrismC was handed    13044802 working-precision words and  3397 shell-pairs
 PrismC was handed    13044802 working-precision words and  3397 shell-pairs
 PrismC was handed    13044802 working-precision words and  3397 shell-pairs
 PrismC was handed    13044802 working-precision words and  3397 shell-pairs
 PrismC was handed    13044802 working-precision words and  3397 shell-pairs
 Enter PrismC: JobTyp=21 DoJE=F Cont=F.
 PrismC was handed    13044802 working-precision words and  3397 shell-pairs
 IPart= 15 NShTot=      163830 NShNF=      163830 NShFF=           0 NBatch=        1347 AvBLen=       121.6
 IPart= 16 NShTot=      154099 NShNF=      154099 NShFF=           0 NBatch=        1188 AvBLen=       129.7
 IPart= 12 NShTot=      161154 NShNF=      161154 NShFF=           0 NBatch=        1394 AvBLen=       115.6
 IPart= 23 NShTot=      176554 NShNF=      176554 NShFF=           0 NBatch=        1524 AvBLen=       115.8
 IPart= 29 NShTot=      154709 NShNF=      154709 NShFF=           0 NBatch=        1441 AvBLen=       107.4
 IPart= 27 NShTot=      150367 NShNF=      150367 NShFF=           0 NBatch=        1337 AvBLen=       112.5
 IPart= 24 NShTot=      160117 NShNF=      160117 NShFF=           0 NBatch=        1437 AvBLen=       111.4
 IPart=  3 NShTot=      164171 NShNF=      164171 NShFF=           0 NBatch=        1496 AvBLen=       109.7
 IPart= 10 NShTot=      163420 NShNF=      163420 NShFF=           0 NBatch=        1511 AvBLen=       108.2
 IPart= 28 NShTot=      161569 NShNF=      161569 NShFF=           0 NBatch=        1296 AvBLen=       124.7
 IPart=  8 NShTot=      167679 NShNF=      167679 NShFF=           0 NBatch=        1473 AvBLen=       113.8
 IPart= 26 NShTot=      152279 NShNF=      152279 NShFF=           0 NBatch=        1403 AvBLen=       108.5
 IPart=  2 NShTot=      159233 NShNF=      159233 NShFF=           0 NBatch=        1518 AvBLen=       104.9
 IPart=  7 NShTot=      171234 NShNF=      171234 NShFF=           0 NBatch=        1446 AvBLen=       118.4
 IPart= 14 NShTot=      164080 NShNF=      164080 NShFF=           0 NBatch=        1374 AvBLen=       119.4
 IPart=  4 NShTot=      167235 NShNF=      167235 NShFF=           0 NBatch=        1500 AvBLen=       111.5
 IPart= 20 NShTot=      150516 NShNF=      150516 NShFF=           0 NBatch=        1479 AvBLen=       101.8
 IPart= 25 NShTot=      165838 NShNF=      165838 NShFF=           0 NBatch=        1476 AvBLen=       112.4
 IPart= 13 NShTot=      162881 NShNF=      162881 NShFF=           0 NBatch=        1430 AvBLen=       113.9
 IPart=  0 NShTot=      155161 NShNF=      155161 NShFF=           0 NBatch=        1166 AvBLen=       133.1
 IPart=  5 NShTot=      166140 NShNF=      166140 NShFF=           0 NBatch=        1516 AvBLen=       109.6
 IPart=  6 NShTot=      171346 NShNF=      171346 NShFF=           0 NBatch=        1411 AvBLen=       121.4
 IPart= 11 NShTot=      178677 NShNF=      178677 NShFF=           0 NBatch=        1447 AvBLen=       123.5
 IPart=  9 NShTot=      166877 NShNF=      166877 NShFF=           0 NBatch=        1486 AvBLen=       112.3
 IPart= 30 NShTot=      156054 NShNF=      156054 NShFF=           0 NBatch=        1440 AvBLen=       108.4
 IPart=  1 NShTot=      154442 NShNF=      154442 NShFF=           0 NBatch=        1390 AvBLen=       111.1
 IPart= 18 NShTot=      178917 NShNF=      178917 NShFF=           0 NBatch=        1505 AvBLen=       118.9
 IPart= 31 NShTot=      160259 NShNF=      160259 NShFF=           0 NBatch=        1475 AvBLen=       108.7
 IPart= 19 NShTot=      157836 NShNF=      157836 NShFF=           0 NBatch=        1230 AvBLen=       128.3
 IPart= 21 NShTot=      174629 NShNF=      174629 NShFF=           0 NBatch=        1444 AvBLen=       120.9
 IPart= 17 NShTot=      160338 NShNF=      160338 NShFF=           0 NBatch=        1485 AvBLen=       108.0
 IPart= 22 NShTot=      152688 NShNF=      152688 NShFF=           0 NBatch=        1277 AvBLen=       119.6
 CoulSu:  NxtVal=        6336513.
 FoFCou: FMM=F IPFlag=           0 FMFlag=      100000 FMFlg1=         800
         NFxFlg=           0 DoJE=F BraDBF=F KetDBF=F FulRan=T
         wScrn=  0.000000 ICntrl=    2127 IOpCl=  1 I1Cent=           0 NGrid=           0
         NMat0=    1 NMatS0=      0 NMatT0=    1 NMatD0=    1 NMtDS0=    0 NMtDT0=    0
         CW=    0.222036    0.777964
         WU=    0.000000   12.500000
 Symmetry not used in FoFCou.
 FoFCou:  KetSym=F NOpSet=  1 NOpAb=1 NOp=  1.
 FoFCou:  CnvScl= 1.00D+00 Thresh= 1.00D-10 IAcrcy=      10.
 PrismS was handed   419077405 working-precision words and  3397 shell-pairs
 FoFCou: LinMIO=F DoNuc=F BraDBF=F KetDBF=F HaveP=T PDBF=F HaveZ=T HaveW=F
         NIJTC =      10 NIJTAt=       0 NIJTCD=       0 NIJTT =      10
         IJTBeg=       1 IJTEnd=      10 KLTBeg=       1 KLTEnd=      10
         IPTBeg=       1 IPTEnd=      10 IPTBCv=       1 IPTECv=      10
         IZTBeg=       1 IZTEnd=      10 IZTBCv=       1 IZTECv=      10
         IWTBeg=      11 IWTEnd=      10 IWTBCv=      11 IWTECv=      10
         INTBeg=       1 INTEnd=       0 IFTBCv=       1 IFTECv=      10
 NCel replicated for PrismC:     1
 CoulSu:  IncDef=  1024 NBBP=        5771503 NTPThr=   100 NPartT=   32 Incr=        1024 LDynOK=F.
 CoulSu:  NPrtUS=  32 ThrOK=T IAlg=1 NPAlg=1 LenDen=           0 LWGrdD=           0 DoCopy=F.
 Enter PrismC: JobTyp=21 DoJE=F Cont=F.
 Linear combination for Coulomb/exchange, wScrn=  0.000000
 CW=    0.222036    0.777964
 WU=    0.000000   12.500000
 PrismC:  IPart=     0 DynPar=T LinDyn=F Incr=        1024 UseFst=F UseS4=T IGathr=2.
 PrismC was handed    13044697 working-precision words and  3397 shell-pairs
 Enter PrismC: JobTyp=21 DoJE=F Cont=F.
 Enter PrismC: JobTyp=21 DoJE=F Cont=F.
 Linear combination for Coulomb/exchange, wScrn=  0.000000
 CW=    0.222036    0.777964
 WU=    0.000000   12.500000
 Enter PrismC: JobTyp=21 DoJE=F Cont=F.
 Linear combination for Coulomb/exchange, wScrn=  0.000000
 CW=    0.222036    0.777964
 WU=    0.000000   12.500000
 Enter PrismC: JobTyp=21 DoJE=F Cont=F.
 Linear combination for Coulomb/exchange, wScrn=  0.000000
 CW=    0.222036    0.777964
 WU=    0.000000   12.500000
 Enter PrismC: JobTyp=21 DoJE=F Cont=F.
 Linear combination for Coulomb/exchange, wScrn=  0.000000
 CW=    0.222036    0.777964
 WU=    0.000000   12.500000
 Enter PrismC: JobTyp=21 DoJE=F Cont=F.
 Linear combination for Coulomb/exchange, wScrn=  0.000000
 CW=    0.222036    0.777964
 WU=    0.000000   12.500000
 Enter PrismC: JobTyp=21 DoJE=F Cont=F.
 Linear combination for Coulomb/exchange, wScrn=  0.000000
 CW=    0.222036    0.777964
 WU=    0.000000   12.500000
 Enter PrismC: JobTyp=21 DoJE=F Cont=F.
 Linear combination for Coulomb/exchange, wScrn=  0.000000
 CW=    0.222036    0.777964
 WU=    0.000000   12.500000
 Enter PrismC: JobTyp=21 DoJE=F Cont=F.
 Linear combination for Coulomb/exchange, wScrn=  0.000000
 CW=    0.222036    0.777964
 WU=    0.000000   12.500000
 Enter PrismC: JobTyp=21 DoJE=F Cont=F.
 Linear combination for Coulomb/exchange, wScrn=  0.000000
 CW=    0.222036    0.777964
 WU=    0.000000   12.500000
 Enter PrismC: JobTyp=21 DoJE=F Cont=F.
 Linear combination for Coulomb/exchange, wScrn=  0.000000
 CW=    0.222036    0.777964
 WU=    0.000000   12.500000
 Enter PrismC: JobTyp=21 DoJE=F Cont=F.
 Linear combination for Coulomb/exchange, wScrn=  0.000000
 CW=    0.222036    0.777964
 WU=    0.000000   12.500000
 Enter PrismC: JobTyp=21 DoJE=F Cont=F.
 Linear combination for Coulomb/exchange, wScrn=  0.000000
 CW=    0.222036    0.777964
 WU=    0.000000   12.500000
 Enter PrismC: JobTyp=21 DoJE=F Cont=F.
 Linear combination for Coulomb/exchange, wScrn=  0.000000
 CW=    0.222036    0.777964
 WU=    0.000000   12.500000
 Enter PrismC: JobTyp=21 DoJE=F Cont=F.
 Linear combination for Coulomb/exchange, wScrn=  0.000000
 CW=    0.222036    0.777964
 WU=    0.000000   12.500000
 Enter PrismC: JobTyp=21 DoJE=F Cont=F.
 Linear combination for Coulomb/exchange, wScrn=  0.000000
 CW=    0.222036    0.777964
 WU=    0.000000   12.500000
 Enter PrismC: JobTyp=21 DoJE=F Cont=F.
 Linear combination for Coulomb/exchange, wScrn=  0.000000
 CW=    0.222036    0.777964
 WU=    0.000000   12.500000
 Enter PrismC: JobTyp=21 DoJE=F Cont=F.
 Linear combination for Coulomb/exchange, wScrn=  0.000000
 CW=    0.222036    0.777964
 WU=    0.000000   12.500000
 Enter PrismC: JobTyp=21 DoJE=F Cont=F.
 Linear combination for Coulomb/exchange, wScrn=  0.000000
 CW=    0.222036    0.777964
 WU=    0.000000   12.500000
 Enter PrismC: JobTyp=21 DoJE=F Cont=F.
 Linear combination for Coulomb/exchange, wScrn=  0.000000
 CW=    0.222036    0.777964
 WU=    0.000000   12.500000
 Enter PrismC: JobTyp=21 DoJE=F Cont=F.
 Linear combination for Coulomb/exchange, wScrn=  0.000000
 CW=    0.222036    0.777964
 WU=    0.000000   12.500000
 PrismC was handed    13044697 working-precision words and  3397 shell-pairs
 Enter PrismC: JobTyp=21 DoJE=F Cont=F.
 Linear combination for Coulomb/exchange, wScrn=  0.000000
 CW=    0.222036    0.777964
 WU=    0.000000   12.500000
 Enter PrismC: JobTyp=21 DoJE=F Cont=F.
 Linear combination for Coulomb/exchange, wScrn=  0.000000
 CW=    0.222036    0.777964
 WU=    0.000000   12.500000
 Enter PrismC: JobTyp=21 DoJE=F Cont=F.
 Linear combination for Coulomb/exchange, wScrn=  0.000000
 CW=    0.222036    0.777964
 WU=    0.000000   12.500000
 PrismC was handed    13044697 working-precision words and  3397 shell-pairs
 Enter PrismC: JobTyp=21 DoJE=F Cont=F.
 Linear combination for Coulomb/exchange, wScrn=  0.000000
 CW=    0.222036    0.777964
 WU=    0.000000   12.500000
 PrismC was handed    13044697 working-precision words and  3397 shell-pairs
 PrismC was handed    13044697 working-precision words and  3397 shell-pairs
 PrismC was handed    13044697 working-precision words and  3397 shell-pairs
 Enter PrismC: JobTyp=21 DoJE=F Cont=F.
 Linear combination for Coulomb/exchange, wScrn=  0.000000
 CW=    0.222036    0.777964
 WU=    0.000000   12.500000
 PrismC was handed    13044697 working-precision words and  3397 shell-pairs
 Enter PrismC: JobTyp=21 DoJE=F Cont=F.
 Linear combination for Coulomb/exchange, wScrn=  0.000000
 CW=    0.222036    0.777964
 WU=    0.000000   12.500000
 Enter PrismC: JobTyp=21 DoJE=F Cont=F.
 Linear combination for Coulomb/exchange, wScrn=  0.000000
 CW=    0.222036    0.777964
 WU=    0.000000   12.500000
 PrismC was handed    13044697 working-precision words and  3397 shell-pairs
 PrismC was handed    13044697 working-precision words and  3397 shell-pairs
 PrismC was handed    13044697 working-precision words and  3397 shell-pairs
 Linear combination for Coulomb/exchange, wScrn=  0.000000
 CW=    0.222036    0.777964
 WU=    0.000000   12.500000
 PrismC was handed    13044697 working-precision words and  3397 shell-pairs
 Enter PrismC: JobTyp=21 DoJE=F Cont=F.
 Linear combination for Coulomb/exchange, wScrn=  0.000000
 CW=    0.222036    0.777964
 WU=    0.000000   12.500000
 Enter PrismC: JobTyp=21 DoJE=F Cont=F.
 Linear combination for Coulomb/exchange, wScrn=  0.000000
 CW=    0.222036    0.777964
 WU=    0.000000   12.500000
 PrismC was handed    13044697 working-precision words and  3397 shell-pairs
 PrismC was handed    13044697 working-precision words and  3397 shell-pairs
 PrismC was handed    13044697 working-precision words and  3397 shell-pairs
 PrismC was handed    13044697 working-precision words and  3397 shell-pairs
 PrismC was handed    13044697 working-precision words and  3397 shell-pairs
 PrismC was handed    13044697 working-precision words and  3397 shell-pairs
 PrismC was handed    13044697 working-precision words and  3397 shell-pairs
 PrismC was handed    13044697 working-precision words and  3397 shell-pairs
 Enter PrismC: JobTyp=21 DoJE=F Cont=F.
 Linear combination for Coulomb/exchange, wScrn=  0.000000
 CW=    0.222036    0.777964
 WU=    0.000000   12.500000
 PrismC was handed    13044697 working-precision words and  3397 shell-pairs
 PrismC was handed    13044697 working-precision words and  3397 shell-pairs
 PrismC was handed    13044697 working-precision words and  3397 shell-pairs
 PrismC was handed    13044697 working-precision words and  3397 shell-pairs
 PrismC was handed    13044697 working-precision words and  3397 shell-pairs
 PrismC was handed    13044697 working-precision words and  3397 shell-pairs
 PrismC was handed    13044697 working-precision words and  3397 shell-pairs
 PrismC was handed    13044697 working-precision words and  3397 shell-pairs
 PrismC was handed    13044697 working-precision words and  3397 shell-pairs
 PrismC was handed    13044697 working-precision words and  3397 shell-pairs
 PrismC was handed    13044697 working-precision words and  3397 shell-pairs
 PrismC was handed    13044697 working-precision words and  3397 shell-pairs
 PrismC was handed    13044697 working-precision words and  3397 shell-pairs
 IPart=  7 NShTot=      167250 NShNF=      167250 NShFF=           0 NBatch=        1811 AvBLen=        92.4
 IPart=  3 NShTot=      162063 NShNF=      162063 NShFF=           0 NBatch=        1770 AvBLen=        91.6
 IPart= 21 NShTot=      165262 NShNF=      165262 NShFF=           0 NBatch=        1772 AvBLen=        93.3
 IPart= 18 NShTot=      171294 NShNF=      171294 NShFF=           0 NBatch=        1756 AvBLen=        97.5
 IPart= 10 NShTot=      160293 NShNF=      160293 NShFF=           0 NBatch=        1784 AvBLen=        89.9
 IPart= 27 NShTot=      162956 NShNF=      162956 NShFF=           0 NBatch=        1696 AvBLen=        96.1
 IPart=  5 NShTot=      143088 NShNF=      143088 NShFF=           0 NBatch=        1725 AvBLen=        82.9
 IPart= 20 NShTot=      164731 NShNF=      164731 NShFF=           0 NBatch=        1679 AvBLen=        98.1
 IPart= 22 NShTot=      150640 NShNF=      150640 NShFF=           0 NBatch=        1655 AvBLen=        91.0
 IPart=  9 NShTot=      179025 NShNF=      179025 NShFF=           0 NBatch=        1812 AvBLen=        98.8
 IPart=  2 NShTot=      159134 NShNF=      159134 NShFF=           0 NBatch=        1762 AvBLen=        90.3
 IPart= 26 NShTot=      166835 NShNF=      166835 NShFF=           0 NBatch=        1686 AvBLen=        99.0
 IPart= 29 NShTot=      167232 NShNF=      167232 NShFF=           0 NBatch=        1643 AvBLen=       101.8
 IPart= 11 NShTot=      160909 NShNF=      160909 NShFF=           0 NBatch=        1770 AvBLen=        90.9
 IPart=  1 NShTot=      166647 NShNF=      166647 NShFF=           0 NBatch=        1799 AvBLen=        92.6
 IPart= 30 NShTot=      166789 NShNF=      166789 NShFF=           0 NBatch=        1707 AvBLen=        97.7
 IPart=  0 NShTot=      166372 NShNF=      166372 NShFF=           0 NBatch=        1514 AvBLen=       109.9
 IPart= 16 NShTot=      177421 NShNF=      177421 NShFF=           0 NBatch=        1755 AvBLen=       101.1
 IPart= 19 NShTot=      171705 NShNF=      171705 NShFF=           0 NBatch=        1655 AvBLen=       103.7
 IPart= 31 NShTot=      169093 NShNF=      169093 NShFF=           0 NBatch=        1774 AvBLen=        95.3
 IPart=  6 NShTot=      161156 NShNF=      161156 NShFF=           0 NBatch=        1864 AvBLen=        86.5
 IPart= 25 NShTot=      176988 NShNF=      176988 NShFF=           0 NBatch=        1816 AvBLen=        97.5
 IPart= 15 NShTot=      156331 NShNF=      156331 NShFF=           0 NBatch=        1660 AvBLen=        94.2
 IPart=  4 NShTot=      161498 NShNF=      161498 NShFF=           0 NBatch=        1847 AvBLen=        87.4
 IPart= 17 NShTot=      154035 NShNF=      154035 NShFF=           0 NBatch=        1820 AvBLen=        84.6
 IPart=  8 NShTot=      169057 NShNF=      169057 NShFF=           0 NBatch=        1764 AvBLen=        95.8
 IPart= 13 NShTot=      152596 NShNF=      152596 NShFF=           0 NBatch=        1750 AvBLen=        87.2
 IPart= 28 NShTot=      138649 NShNF=      138649 NShFF=           0 NBatch=        1793 AvBLen=        77.3
 IPart= 12 NShTot=      164872 NShNF=      164872 NShFF=           0 NBatch=        1820 AvBLen=        90.6
 IPart= 24 NShTot=      166088 NShNF=      166088 NShFF=           0 NBatch=        1730 AvBLen=        96.0
 IPart= 23 NShTot=      169085 NShNF=      169085 NShFF=           0 NBatch=        1863 AvBLen=        90.8
 IPart= 14 NShTot=      166179 NShNF=      166179 NShFF=           0 NBatch=        1817 AvBLen=        91.5
 CoulSu:  NxtVal=        6336513.
 ReadGW:  IGet=0 IStart=           1 Next=           1 LGW=           0.
 Remaining memory in FofDFT      399.87 Mw
 CkSvGd:  ISavGI=        -1 IRadAn=       5 IRASav=       5 ISavGd=        -1.
 CalDSu:  NPrtUS=  32 ThrOK=T IAlg=1 NPAlg=2 DoDPD=T LenP=       33930 LenD1P=             0.
 IPart=  0 IRanGd=          0 ScrnBf=T ScrnGd=T RCrit=4.00D+00 DoMicB=T.
 IPart= 15         4816 of         5090 points in       5 batches and       23 microbatches, Max-NSigAt=       8 Max-NSgAt2=       8
 IPart= 19         6043 of         7404 points in      10 batches and       44 microbatches, Max-NSigAt=       8 Max-NSgAt2=       8
 IPart= 25         5133 of         5928 points in       6 batches and       20 microbatches, Max-NSigAt=       8 Max-NSgAt2=       8
 IPart=  0         5684 of         6784 points in       8 batches and       23 microbatches, Max-NSigAt=       8 Max-NSgAt2=       8
 IPart= 14         4480 of         4762 points in       5 batches and       31 microbatches, Max-NSigAt=       8 Max-NSgAt2=       8
 IPart= 17         5558 of         6354 points in       7 batches and       24 microbatches, Max-NSigAt=       8 Max-NSgAt2=       8
 IPart= 12         5849 of         6692 points in       8 batches and       49 microbatches, Max-NSigAt=       8 Max-NSgAt2=       8
 IPart= 11         5306 of         6112 points in       7 batches and       44 microbatches, Max-NSigAt=       8 Max-NSgAt2=       8
 IPart=  2         5967 of         7130 points in       9 batches and       40 microbatches, Max-NSigAt=       8 Max-NSgAt2=       8
 IPart= 24         4744 of         5250 points in       7 batches and       43 microbatches, Max-NSigAt=       8 Max-NSgAt2=       8
 IPart= 10         4705 of         4948 points in       5 batches and       28 microbatches, Max-NSigAt=       8 Max-NSgAt2=       8
 IPart=  4         4521 of         4920 points in       5 batches and       24 microbatches, Max-NSigAt=       8 Max-NSgAt2=       8
 IPart=  8         4594 of         4704 points in       4 batches and       13 microbatches, Max-NSigAt=       8 Max-NSgAt2=       8
 IPart=  7         5082 of         5336 points in       6 batches and       20 microbatches, Max-NSigAt=       8 Max-NSgAt2=       8
 IPart= 21         4924 of         5118 points in       5 batches and       29 microbatches, Max-NSigAt=       8 Max-NSgAt2=       8
 IPart=  5         5720 of         6526 points in       9 batches and       31 microbatches, Max-NSigAt=       8 Max-NSgAt2=       8
 IPart= 16         4665 of         4748 points in       4 batches and       14 microbatches, Max-NSigAt=       8 Max-NSgAt2=       8
 IPart= 22         4414 of         4748 points in       5 batches and       33 microbatches, Max-NSigAt=       8 Max-NSgAt2=       8
 IPart=  6         5068 of         5736 points in       7 batches and       38 microbatches, Max-NSigAt=       8 Max-NSgAt2=       8
 IPart=  9         5511 of         5900 points in       6 batches and       42 microbatches, Max-NSigAt=       8 Max-NSgAt2=       8
 IPart= 29         6117 of         7300 points in      10 batches and       42 microbatches, Max-NSigAt=       8 Max-NSgAt2=       8
 IPart= 27         4792 of         5380 points in       6 batches and       47 microbatches, Max-NSigAt=       8 Max-NSgAt2=       8
 IPart= 20         5084 of         5352 points in       5 batches and       28 microbatches, Max-NSigAt=       8 Max-NSgAt2=       8
 IPart= 13         5287 of         5956 points in       7 batches and       40 microbatches, Max-NSigAt=       8 Max-NSgAt2=       8
 IPart= 23         5498 of         6064 points in       7 batches and       33 microbatches, Max-NSigAt=       8 Max-NSgAt2=       8
 IPart=  3         5104 of         5352 points in       5 batches and       24 microbatches, Max-NSigAt=       8 Max-NSgAt2=       8
 IPart= 18         5147 of         5524 points in       6 batches and       34 microbatches, Max-NSigAt=       8 Max-NSgAt2=       8
 IPart= 28         5263 of         5524 points in       6 batches and       32 microbatches, Max-NSigAt=       8 Max-NSgAt2=       8
 IPart= 30         6346 of         7228 points in       9 batches and       40 microbatches, Max-NSigAt=       8 Max-NSgAt2=       8
 IPart= 26         4894 of         5324 points in       5 batches and       30 microbatches, Max-NSigAt=       8 Max-NSgAt2=       8
 IPart= 31         5974 of         6498 points in       7 batches and       26 microbatches, Max-NSigAt=       8 Max-NSgAt2=       8
 IPart=  1         5369 of         5520 points in       5 batches and       18 microbatches, Max-NSigAt=       8 Max-NSgAt2=       8
 Forces at end of L703
 I=    0 X=  -8.217249847827D-04 Y=  -1.430395136159D-03 Z=  -1.375997143790D-03
 I=    1 X=   1.634644376272D-03 Y=   1.284375331573D-02 Z=   3.150553519337D-04
 I=    2 X=   1.405720117894D-04 Y=  -1.134863862431D-03 Z=   1.827301423361D-04
 I=    3 X=   1.384784357601D-04 Y=  -8.523203714976D-04 Z=   3.930850521261D-05
 I=    4 X=  -2.987080051140D-04 Y=  -2.395796998522D-03 Z=  -2.448732401323D-04
 I=    5 X=  -2.138959218395D-03 Y=  -1.259810332847D-02 Z=  -1.117972461122D-03
 I=    6 X=   5.225125776143D-05 Y=   7.733591093965D-04 Z=   3.023998767926D-04
 I=    7 X=   2.374569657335D-04 Y=   1.035811056879D-03 Z=   4.213276359033D-04
 I=    8 X=   2.342641762086D-04 Y=   2.328161078924D-03 Z=   1.020241890743D-04
 FrcOut:
 IF    =    45 IFX   =    69 IFXYZ =    93
 IFFX  =   117 IFFFX =   417 IFLen =    24
 IFFLen=   300 IFFFLn=     0 IEDerv=   417
 LEDerv=  1205 IFroze=  1904 ICStrt=108261
 FCEst1:  Generated internal coordinate force constants:
                1             2             3             4             5 
      1  0.733786D+00
      2  0.836204D-02  0.229989D+00
      3 -0.215336D-02  0.479701D-02  0.736222D+00
      4 -0.118127D+00 -0.472772D-02  0.169236D-02  0.794108D-01
      5 -0.473332D-02 -0.714750D-01  0.138814D-01  0.460545D-02  0.488294D-01
      6  0.000000D+00  0.000000D+00 -0.362127D+00  0.000000D+00  0.000000D+00
      7 -0.300466D+00 -0.235562D-02  0.105198D+00  0.192776D-01 -0.178090D-04
      8  0.966420D-02 -0.714958D-01 -0.110200D-01 -0.356480D-04  0.108459D-01
      9  0.106921D+00 -0.408464D-02 -0.179714D+00  0.334273D-01 -0.308807D-04
     10 -0.300828D+00 -0.752376D-03 -0.105979D+00  0.193091D-01  0.408367D-04
     11 -0.127541D-01 -0.691062D-01 -0.734167D-02  0.532191D-04  0.108404D-01
     12 -0.106010D+00 -0.400798D-03 -0.178677D+00 -0.334166D-01 -0.133670D-03
     13 -0.157987D-01 -0.353335D-03  0.130904D-02  0.121371D-03  0.105816D-03
     14 -0.367616D-03 -0.179262D-01 -0.419941D-03  0.105646D-03  0.959175D-03
     15  0.130990D-02 -0.412663D-03 -0.143964D-01 -0.170284D-02 -0.137169D-01
     16 -0.701634D-03  0.545244D-04  0.458806D-03 -0.280045D-03  0.347430D-04
     17 -0.117398D-01  0.952993D-03  0.710275D-02  0.681613D-04 -0.845623D-05
     18 -0.121578D-02  0.945972D-04  0.793345D-03 -0.471453D-03  0.584895D-04
     19  0.222930D-02 -0.358411D-03  0.115456D-02 -0.264365D-03  0.327977D-04
     20  0.117794D-01 -0.191588D-02  0.641192D-02 -0.159160D-05  0.000000D+00
     21  0.119353D-02 -0.201799D-03  0.757962D-03  0.485153D-03 -0.601891D-04
     22 -0.950922D-04  0.130887D-03 -0.168008D-02  0.552194D-03 -0.685063D-04
     23 -0.210874D-03  0.976817D-03 -0.134115D-01 -0.675178D-04  0.837641D-05
     24 -0.450187D-04  0.208288D-03 -0.285967D-02 -0.139454D-04  0.173009D-05
                6             7             8             9            10 
      6  0.362127D+00
      7  0.000000D+00  0.291566D+00
      8  0.000000D+00  0.228883D-02  0.488354D-01
      9  0.000000D+00 -0.122353D+00  0.396883D-02  0.149966D+00
     10  0.000000D+00 -0.964649D-02 -0.954371D-04 -0.167270D-01  0.291225D+00
     11  0.000000D+00  0.265955D-04  0.108404D-01  0.461166D-04  0.800143D-03
     12  0.000000D+00  0.166940D-01  0.102165D-03  0.289475D-01  0.122697D+00
     13  0.000000D+00 -0.727186D-03 -0.118229D-01 -0.126094D-02 -0.562720D-04
     14  0.000000D+00  0.575253D-04  0.974204D-03  0.997488D-04  0.635187D-05
     15  0.000000D+00  0.461194D-03  0.694901D-02  0.799710D-03  0.887882D-05
     16  0.000000D+00  0.139928D-03 -0.345585D-04  0.242635D-03  0.142328D-03
     17  0.000000D+00 -0.340575D-04  0.841133D-05 -0.590558D-04 -0.346416D-04
     18  0.000000D+00  0.235567D-03 -0.581789D-04  0.408473D-03  0.239607D-03
     19  0.000000D+00  0.132093D-03 -0.326236D-04  0.229049D-03  0.134358D-03
     20  0.000000D+00  0.000000D+00  0.000000D+00  0.137899D-05  0.000000D+00
     21  0.000000D+00 -0.242412D-03  0.598694D-04 -0.420342D-03 -0.246569D-03
     22  0.000000D+00 -0.275910D-03  0.681426D-04 -0.478428D-03 -0.280642D-03
     23  0.000000D+00  0.337360D-04 -0.833193D-05  0.584983D-04  0.343146D-04
     24  0.000000D+00  0.696796D-05 -0.172091D-05  0.120824D-04  0.708746D-05
               11            12            13            14            15 
     11  0.493850D-01
     12  0.432740D-03  0.149785D+00
     13  0.118741D-01  0.283792D-04  0.729804D+00
     14 -0.195958D-02  0.000000D+00 -0.602302D-01  0.262810D+00
     15  0.686281D-02 -0.552481D-04 -0.140424D-01 -0.108971D+00  0.707537D+00
     16  0.000000D+00 -0.246311D-03 -0.296558D+00  0.722506D-02  0.108836D+00
     17  0.000000D+00  0.599504D-04  0.189178D-01 -0.763132D-01  0.605609D-02
     18  0.000000D+00 -0.414661D-03  0.110485D+00  0.129984D-01 -0.178808D+00
     19  0.000000D+00 -0.232519D-03 -0.300087D+00  0.478684D-01 -0.978942D-01
     20  0.000000D+00 -0.139988D-05  0.358350D-01 -0.832211D-01  0.307453D-01
     21  0.000000D+00  0.426710D-03 -0.979257D-01  0.372942D-01 -0.168402D+00
     22  0.000000D+00  0.485675D-03 -0.116698D+00  0.533486D-02  0.302312D-02
     23  0.000000D+00 -0.593845D-04  0.567371D-02 -0.853233D-01  0.724869D-01
     24  0.000000D+00 -0.122655D-04  0.140668D-02  0.589978D-01 -0.346676D+00
               16            17            18            19            20 
     16  0.287443D+00
     17 -0.523351D-02  0.526918D-01
     18 -0.125797D+00 -0.971282D-02  0.150231D+00
     19 -0.934535D-02  0.595917D-02 -0.157221D-01  0.288008D+00
     20 -0.105464D-02  0.113566D-01 -0.174324D-02 -0.524347D-01  0.641350D-01
     21  0.167018D-01 -0.585135D-02  0.281121D-01  0.112670D+00 -0.374743D-01
     22  0.191602D-01 -0.790315D-02  0.322465D-01  0.191933D-01  0.587492D-02
     23 -0.991427D-03  0.113117D-01 -0.163691D-02 -0.103440D-02  0.964536D-02
     24 -0.195880D-03  0.240444D-02 -0.322919D-03 -0.205012D-03  0.206038D-02
               21            22            23            24 
     21  0.138223D+00
     22 -0.326359D-01  0.784440D-01
     23  0.623327D-02 -0.343755D-02  0.633894D-01
     24  0.130220D-02 -0.960875D-03 -0.636709D-01  0.348556D+00
 Quadrupole    = 8.78343352D-01-1.71184133D+00 8.33497973D-01
                -1.40841715D-01-3.63776058D-02-2.72834881D-01
 -------------------------------------------------------------------
 Center     Atomic                   Forces (Hartrees/Bohr)
 Number     Number              X              Y              Z
 -------------------------------------------------------------------
      1        6          -0.001634644   -0.012843753   -0.000315055
      2        1          -0.000140572    0.001134864   -0.000182730
      3        1          -0.000138478    0.000852320   -0.000039309
      4        1           0.000298708    0.002395797    0.000244873
      5        6           0.002138959    0.012598103    0.001117972
      6        1          -0.000052251   -0.000773359   -0.000302400
      7        1          -0.000237457   -0.001035811   -0.000421328
      8        1          -0.000234264   -0.002328161   -0.000102024
 -------------------------------------------------------------------
 Cartesian Forces:  Max     0.012843753 RMS     0.003806423
 From PutF, contents of force:
   1   -0.2093789018D-02
   2   -0.2458656469D-04
   3   -0.1818061954D-02
   4   -0.2709124986D-02
   5   -0.9721671682D-03
   6    0.4224778089D-02
   7   -0.1083128181D-03
   8   -0.1834182062D-03
   9   -0.3856889155D-03
  10    0.2376119235D-03
  11    0.9452458567D-04
  12   -0.4074682663D-02
  13   -0.1192968432D-03
  14    0.2103365864D-03
  15   -0.3881123249D-03
  16   -0.1003218713D-03
  17   -0.1827301423D-03
  18   -0.8594554960D-02
 -----------------------------------------------------------------------------------------------
                       Internal Coordinate Forces (Hartree/Bohr or radian)
  Cent   Atom   N1       Length/X         N2         Alpha/Y        N3         Beta/Z          J
 -----------------------------------------------------------------------------------------------
      1  C 
      2  H        1  -0.000183(     1)
      3  H        1  -0.000100(     2)      2   0.000210(     8)
      4  H        1  -0.000388(     3)      2  -0.000119(     9)      3   0.004225(    14)     0
      5  C        1  -0.008595(     4)      2  -0.000972(    10)      3  -0.002709(    15)     0
      6  H        5  -0.000108(     5)      1  -0.001818(    11)      2  -0.000025(    16)     0
      7  H        5  -0.000183(     6)      6   0.000238(    12)      1  -0.002094(    17)     0
      8  H        5  -0.000386(     7)      6   0.000095(    13)      7  -0.004075(    18)     0
 -----------------------------------------------------------------------------------------------
 Internal  Forces:  Max     0.008594555 RMS     0.002633171
 Force constants in Cartesian coordinates: 
                1             2             3             4             5 
      1  0.733786D+00
      2  0.836204D-02  0.229989D+00
      3 -0.215336D-02  0.479701D-02  0.736222D+00
      4 -0.118127D+00 -0.472772D-02  0.169236D-02  0.794108D-01
      5 -0.473332D-02 -0.714750D-01  0.138814D-01  0.460545D-02  0.488294D-01
      6  0.000000D+00  0.000000D+00 -0.362127D+00  0.000000D+00  0.000000D+00
      7 -0.300466D+00 -0.235562D-02  0.105198D+00  0.192776D-01 -0.178090D-04
      8  0.966420D-02 -0.714958D-01 -0.110200D-01 -0.356480D-04  0.108459D-01
      9  0.106921D+00 -0.408464D-02 -0.179714D+00  0.334273D-01 -0.308807D-04
     10 -0.300828D+00 -0.752376D-03 -0.105979D+00  0.193091D-01  0.408367D-04
     11 -0.127541D-01 -0.691062D-01 -0.734167D-02  0.532191D-04  0.108404D-01
     12 -0.106010D+00 -0.400798D-03 -0.178677D+00 -0.334166D-01 -0.133670D-03
     13 -0.157987D-01 -0.353335D-03  0.130904D-02  0.121371D-03  0.105816D-03
     14 -0.367616D-03 -0.179262D-01 -0.419941D-03  0.105646D-03  0.959175D-03
     15  0.130990D-02 -0.412663D-03 -0.143964D-01 -0.170284D-02 -0.137169D-01
     16 -0.701634D-03  0.545244D-04  0.458806D-03 -0.280045D-03  0.347430D-04
     17 -0.117398D-01  0.952993D-03  0.710275D-02  0.681613D-04 -0.845623D-05
     18 -0.121578D-02  0.945972D-04  0.793345D-03 -0.471453D-03  0.584895D-04
     19  0.222930D-02 -0.358411D-03  0.115456D-02 -0.264365D-03  0.327977D-04
     20  0.117794D-01 -0.191588D-02  0.641192D-02 -0.159160D-05  0.000000D+00
     21  0.119353D-02 -0.201799D-03  0.757962D-03  0.485153D-03 -0.601891D-04
     22 -0.950922D-04  0.130887D-03 -0.168008D-02  0.552194D-03 -0.685063D-04
     23 -0.210874D-03  0.976817D-03 -0.134115D-01 -0.675178D-04  0.837641D-05
     24 -0.450187D-04  0.208288D-03 -0.285967D-02 -0.139454D-04  0.173009D-05
                6             7             8             9            10 
      6  0.362127D+00
      7  0.000000D+00  0.291566D+00
      8  0.000000D+00  0.228883D-02  0.488354D-01
      9  0.000000D+00 -0.122353D+00  0.396883D-02  0.149966D+00
     10  0.000000D+00 -0.964649D-02 -0.954371D-04 -0.167270D-01  0.291225D+00
     11  0.000000D+00  0.265955D-04  0.108404D-01  0.461166D-04  0.800143D-03
     12  0.000000D+00  0.166940D-01  0.102165D-03  0.289475D-01  0.122697D+00
     13  0.000000D+00 -0.727186D-03 -0.118229D-01 -0.126094D-02 -0.562720D-04
     14  0.000000D+00  0.575253D-04  0.974204D-03  0.997488D-04  0.635187D-05
     15  0.000000D+00  0.461194D-03  0.694901D-02  0.799710D-03  0.887882D-05
     16  0.000000D+00  0.139928D-03 -0.345585D-04  0.242635D-03  0.142328D-03
     17  0.000000D+00 -0.340575D-04  0.841133D-05 -0.590558D-04 -0.346416D-04
     18  0.000000D+00  0.235567D-03 -0.581789D-04  0.408473D-03  0.239607D-03
     19  0.000000D+00  0.132093D-03 -0.326236D-04  0.229049D-03  0.134358D-03
     20  0.000000D+00  0.000000D+00  0.000000D+00  0.137899D-05  0.000000D+00
     21  0.000000D+00 -0.242412D-03  0.598694D-04 -0.420342D-03 -0.246569D-03
     22  0.000000D+00 -0.275910D-03  0.681426D-04 -0.478428D-03 -0.280642D-03
     23  0.000000D+00  0.337360D-04 -0.833193D-05  0.584983D-04  0.343146D-04
     24  0.000000D+00  0.696796D-05 -0.172091D-05  0.120824D-04  0.708746D-05
               11            12            13            14            15 
     11  0.493850D-01
     12  0.432740D-03  0.149785D+00
     13  0.118741D-01  0.283792D-04  0.729804D+00
     14 -0.195958D-02  0.000000D+00 -0.602302D-01  0.262810D+00
     15  0.686281D-02 -0.552481D-04 -0.140424D-01 -0.108971D+00  0.707537D+00
     16  0.000000D+00 -0.246311D-03 -0.296558D+00  0.722506D-02  0.108836D+00
     17  0.000000D+00  0.599504D-04  0.189178D-01 -0.763132D-01  0.605609D-02
     18  0.000000D+00 -0.414661D-03  0.110485D+00  0.129984D-01 -0.178808D+00
     19  0.000000D+00 -0.232519D-03 -0.300087D+00  0.478684D-01 -0.978942D-01
     20  0.000000D+00 -0.139988D-05  0.358350D-01 -0.832211D-01  0.307453D-01
     21  0.000000D+00  0.426710D-03 -0.979257D-01  0.372942D-01 -0.168402D+00
     22  0.000000D+00  0.485675D-03 -0.116698D+00  0.533486D-02  0.302312D-02
     23  0.000000D+00 -0.593845D-04  0.567371D-02 -0.853233D-01  0.724869D-01
     24  0.000000D+00 -0.122655D-04  0.140668D-02  0.589978D-01 -0.346676D+00
               16            17            18            19            20 
     16  0.287443D+00
     17 -0.523351D-02  0.526918D-01
[...]
      1      1  C 
      2      2  H        1   1.078200(     1)
      3      3  H        1   1.078200(     2)      2  119.972(     8)
      4      4  H        1   1.078200(     3)      2  120.021(     9)      3  179.808(    14)      0
      5      5  C        1   3.000000(     4)      2   89.976(    10)      3   89.875(    15)      0
      6      6  H        5   1.078200(     5)      1   90.092(    11)      2   59.885(    16)      0
      7      7  H        5   1.078200(     6)      6  119.972(    12)      1   90.089(    17)      0
      8      8  H        5   1.078200(     7)      6  120.021(    13)      7  179.808(    18)      0
 ---------------------------------------------------------------------------------------------------
                         Z-Matrix orientation:                         
 ---------------------------------------------------------------------
 Center     Atomic      Atomic             Coordinates (Angstroms)
 Number     Number       Type             X           Y           Z
 ---------------------------------------------------------------------
      1          6           0        0.000000    0.000000    0.000000
      2          1           0        0.000000    0.000000    1.078200
      3          1           0        0.934011    0.000000   -0.538645
      4          1           0       -0.933548   -0.003135   -0.539437
      5          6           0        0.006547   -2.999993    0.001254
      6          1           0       -0.926112   -3.003530    0.542226
      7          1           0        0.941112   -2.998315    0.538933
      8          1           0        0.004779   -3.001267   -1.076944
 ---------------------------------------------------------------------
                    Distance matrix (angstroms):
                    1          2          3          4          5
     1  C    0.000000
     2  H    1.078200   0.000000
     3  H    1.078200   1.867235   0.000000
     4  H    1.078200   1.867692   1.867562   0.000000
     5  C    3.000000   3.187446   3.186163   3.187049   0.000000
     6  H    3.189496   3.188440   3.694528   3.189424   1.078200
     7  H    3.188422   3.188479   3.186082   3.694366   1.078200
     8  H    3.188642   3.694898   3.187608   3.187188   1.078200
                    6          7          8
     6  H    0.000000
     7  H    1.867235   0.000000
     8  H    1.867692   1.867562   0.000000
 Symmetry turned off by external request.
 Stoichiometry    C2H6
 Framework group  C1[X(C2H6)]
 Deg. of freedom    18
 Full point group                 C1      NOp   1
 Rotational constants (GHZ):     71.8923473      7.1060078      7.1059050

 **********************************************************************

            Population analysis using the SCF density.

 **********************************************************************

 Alpha  occ. eigenvalues --  -10.29607 -10.28587  -0.78368  -0.73991  -0.50766
 Alpha  occ. eigenvalues --   -0.50760  -0.49319  -0.49312  -0.30968
 Alpha virt. eigenvalues --    0.01013   0.03300   0.04660   0.04660   0.05627
 Alpha virt. eigenvalues --    0.06927   0.06927   0.10952   0.12116   0.12117
 Alpha virt. eigenvalues --    0.13108   0.14123   0.14123   0.15430   0.16242
 Alpha virt. eigenvalues --    0.19837   0.19837   0.21991   0.21993   0.23938
 Alpha virt. eigenvalues --    0.23939   0.28576   0.30022   0.31157   0.31159
 Alpha virt. eigenvalues --    0.32017   0.32027   0.35341   0.35342   0.35954
 Alpha virt. eigenvalues --    0.36064   0.36065   0.36242   0.37830   0.39020
 Alpha virt. eigenvalues --    0.39020   0.39528   0.41238   0.41271   0.41275
 Alpha virt. eigenvalues --    0.41741   0.41745   0.43916   0.43919   0.47352
 Alpha virt. eigenvalues --    0.47354   0.47443   0.48724   0.48725   0.54384
 Alpha virt. eigenvalues --    0.66767   0.71394   0.71396   0.71431   0.71499
 Alpha virt. eigenvalues --    0.71503   0.76474   0.76477   0.77233   0.77238
 Alpha virt. eigenvalues --    0.79300   0.80050   0.81340   0.82055   0.83070
 Alpha virt. eigenvalues --    0.83073   0.87367   0.87510   0.87511   0.90242
 Alpha virt. eigenvalues --    0.90243   0.91415   0.93614   0.93616   0.93763
 Alpha virt. eigenvalues --    0.96500   1.02321   1.02357   1.02359   1.03125
 Alpha virt. eigenvalues --    1.03126   1.04809   1.04813   1.08384   1.09415
 Alpha virt. eigenvalues --    1.10059   1.10061   1.11929   1.11934   1.15326
 Alpha virt. eigenvalues --    1.15398   1.15400   1.22358   1.22360   1.22767
 Alpha virt. eigenvalues --    1.22772   1.28929   1.32130   1.40766   1.40773
 Alpha virt. eigenvalues --    1.41459   1.41465   1.47611   1.50500   1.50504
 Alpha virt. eigenvalues --    1.51241   1.51712   1.51718   1.53215   1.53343
 Alpha virt. eigenvalues --    1.56792   1.56800   1.60333   1.62307   1.63404
 Alpha virt. eigenvalues --    1.63407   1.64543   1.74895   1.80854   1.80862
 Alpha virt. eigenvalues --    1.81655   1.81661   1.82571   1.88051   1.97703
 Alpha virt. eigenvalues --    1.97716   2.01185   2.01191   2.07541   2.07547
 Alpha virt. eigenvalues --    2.08974   2.08981   2.09587   2.09734   2.14785
 Alpha virt. eigenvalues --    2.78231   2.78239   2.89088   2.93842   2.93852
 Alpha virt. eigenvalues --    2.94698   2.99640   3.04215   3.04408   3.04416
 Alpha virt. eigenvalues --    3.17612   3.17627   3.36008   3.36014   3.36691
 Alpha virt. eigenvalues --    3.38941   3.38950   3.39449   3.39455   3.41848
 Alpha virt. eigenvalues --    3.43616   3.44187   3.47388   3.47398   3.51390
 Alpha virt. eigenvalues --    3.51397   3.52718   3.52725   3.60378   3.67487
 Alpha virt. eigenvalues --    3.72751   3.74884   3.74886   3.76543   3.76606
 Alpha virt. eigenvalues --    3.76608   3.79202   3.92553   4.04350   4.04362
 Alpha virt. eigenvalues --    4.05801   4.05813   4.16130   4.17840   4.17859
 Alpha virt. eigenvalues --    4.20136   4.20157   4.23357   4.43537   4.55595
 Alpha virt. eigenvalues --    4.55597   4.60001   4.61421   4.61423   4.61555
 Alpha virt. eigenvalues --    4.61558   4.67686   4.67691   4.73932   4.80729
 Alpha virt. eigenvalues --    4.84357   4.88403   5.05354   5.05392   5.06072
 Alpha virt. eigenvalues --    5.06111   5.12326   5.12347   5.14820   5.14839
 Alpha virt. eigenvalues --    5.19519   5.19526   5.20212   5.20217   5.28648
 Alpha virt. eigenvalues --    5.34546   6.06475   6.11910   6.25246   6.25276
 Alpha virt. eigenvalues --    6.26164   6.26193   6.40084   6.43613  16.02602
 Alpha virt. eigenvalues --   16.16101
  Beta  occ. eigenvalues --  -10.29605 -10.28590  -0.78366  -0.73994  -0.50764
  Beta  occ. eigenvalues --   -0.50757  -0.49321  -0.49313  -0.30965
  Beta virt. eigenvalues --    0.01012   0.03301   0.04660   0.04660   0.05626
  Beta virt. eigenvalues --    0.06927   0.06928   0.10950   0.12114   0.12115
  Beta virt. eigenvalues --    0.13109   0.14122   0.14123   0.15426   0.16238
  Beta virt. eigenvalues --    0.19837   0.19837   0.21992   0.21993   0.23936
  Beta virt. eigenvalues --    0.23938   0.28578   0.30019   0.31157   0.31158
  Beta virt. eigenvalues --    0.32017   0.32030   0.35341   0.35342   0.35951
  Beta virt. eigenvalues --    0.36064   0.36066   0.36246   0.37830   0.39017
  Beta virt. eigenvalues --    0.39018   0.39525   0.41237   0.41279   0.41283
  Beta virt. eigenvalues --    0.41734   0.41737   0.43917   0.43919   0.47349
  Beta virt. eigenvalues --    0.47352   0.47443   0.48726   0.48726   0.54384
  Beta virt. eigenvalues --    0.66766   0.71393   0.71394   0.71432   0.71499
  Beta virt. eigenvalues --    0.71505   0.76479   0.76482   0.77231   0.77234
  Beta virt. eigenvalues --    0.79315   0.80050   0.81325   0.82055   0.83059
  Beta virt. eigenvalues --    0.83063   0.87367   0.87517   0.87520   0.90240
  Beta virt. eigenvalues --    0.90242   0.91416   0.93617   0.93618   0.93761
  Beta virt. eigenvalues --    0.96500   1.02319   1.02357   1.02359   1.03122
  Beta virt. eigenvalues --    1.03126   1.04813   1.04816   1.08366   1.09429
  Beta virt. eigenvalues --    1.10062   1.10064   1.11923   1.11925   1.15325
  Beta virt. eigenvalues --    1.15396   1.15401   1.22356   1.22360   1.22770
  Beta virt. eigenvalues --    1.22774   1.28933   1.32130   1.40752   1.40760
  Beta virt. eigenvalues --    1.41469   1.41478   1.47615   1.50495   1.50501
  Beta virt. eigenvalues --    1.51241   1.51718   1.51721   1.53214   1.53346
  Beta virt. eigenvalues --    1.56790   1.56798   1.60330   1.62329   1.63406
  Beta virt. eigenvalues --    1.63408   1.64504   1.74909   1.80848   1.80855
  Beta virt. eigenvalues --    1.81659   1.81667   1.82569   1.88050   1.97701
  Beta virt. eigenvalues --    1.97709   2.01189   2.01195   2.07539   2.07547
  Beta virt. eigenvalues --    2.08974   2.08986   2.09587   2.09741   2.14779
  Beta virt. eigenvalues --    2.78229   2.78236   2.89071   2.93832   2.93838
  Beta virt. eigenvalues --    2.94702   2.99645   3.04214   3.04435   3.04441
  Beta virt. eigenvalues --    3.17603   3.17620   3.35997   3.36006   3.36695
  Beta virt. eigenvalues --    3.38957   3.38962   3.39425   3.39434   3.41876
  Beta virt. eigenvalues --    3.43612   3.44191   3.47402   3.47410   3.51380
  Beta virt. eigenvalues --    3.51384   3.52727   3.52736   3.60356   3.67487
  Beta virt. eigenvalues --    3.72737   3.74886   3.74887   3.76553   3.76605
  Beta virt. eigenvalues --    3.76607   3.79202   3.92556   4.04407   4.04420
  Beta virt. eigenvalues --    4.05749   4.05758   4.16133   4.17819   4.17843
  Beta virt. eigenvalues --    4.20151   4.20173   4.23354   4.43536   4.55593
  Beta virt. eigenvalues --    4.55595   4.59998   4.61390   4.61393   4.61591
  Beta virt. eigenvalues --    4.61593   4.67683   4.67688   4.73932   4.80739
  Beta virt. eigenvalues --    4.84350   4.88403   5.05364   5.05402   5.06064
  Beta virt. eigenvalues --    5.06101   5.12264   5.12284   5.14900   5.14919
  Beta virt. eigenvalues --    5.19552   5.19563   5.20156   5.20166   5.28647
  Beta virt. eigenvalues --    5.34548   6.06470   6.11915   6.25226   6.25261
  Beta virt. eigenvalues --    6.26181   6.26212   6.40083   6.43615  16.02599
  Beta virt. eigenvalues --   16.16103
          Condensed to atoms (all electrons):
               1          2          3          4          5          6
     1  C    6.040165   0.332674   0.332604   0.332663   0.058014  -0.001687
     2  H    0.332674   0.285847   0.010860   0.010850  -0.001673  -0.000748
     3  H    0.332604   0.010860   0.285873   0.010858  -0.001675  -0.000755
     4  H    0.332663   0.010850   0.010858   0.285855  -0.001678  -0.000748
     5  C    0.058014  -0.001673  -0.001675  -0.001678   6.040075   0.332800
     6  H   -0.001687  -0.000748  -0.000755  -0.000748   0.332800   0.285716
     7  H   -0.001686  -0.000749  -0.000751  -0.000755   0.332729   0.010854
     8  H   -0.001679  -0.000754  -0.000750  -0.000750   0.332752   0.010836
               7          8
     1  C   -0.001686  -0.001679
     2  H   -0.000749  -0.000754
     3  H   -0.000751  -0.000750
     4  H   -0.000755  -0.000750
     5  C    0.332729   0.332752
     6  H    0.010854   0.010836
     7  H    0.285739   0.010841
     8  H    0.010841   0.285737
          Atomic-Atomic Spin Densities.
               1          2          3          4          5          6
     1  C   -0.953738  -0.004385  -0.004349  -0.004339  -0.000040   0.004502
     2  H   -0.004385   0.027821  -0.002901  -0.002901  -0.004512   0.000002
     3  H   -0.004349  -0.002901   0.027827  -0.002902  -0.004516   0.000002
     4  H   -0.004339  -0.002901  -0.002902   0.027841  -0.004519   0.000002
     5  C   -0.000040  -0.004512  -0.004516  -0.004519   0.953372   0.004511
     6  H    0.004502   0.000002   0.000002   0.000002   0.004511  -0.027924
     7  H    0.004503   0.000002   0.000003   0.000001   0.004511   0.002872
     8  H    0.004498   0.000001   0.000001   0.000001   0.004502   0.002877
               7          8
     1  C    0.004503   0.004498
     2  H    0.000002   0.000001
     3  H    0.000003   0.000001
     4  H    0.000001   0.000001
     5  C    0.004511   0.004502
     6  H    0.002872   0.002877
     7  H   -0.027909   0.002878
     8  H    0.002878  -0.027901
 Mulliken charges and spin densities:
               1          2
     1  C   -1.091069  -0.953347
     2  H    0.363694   0.013127
     3  H    0.363736   0.013164
     4  H    0.363706   0.013185
     5  C   -1.091343   0.953309
     6  H    0.363731  -0.013156
     7  H    0.363779  -0.013139
     8  H    0.363767  -0.013143
 Sum of Mulliken charges =  -0.00000  -0.00000
 Mulliken charges and spin densities with hydrogens summed into heavy atoms:
               1          2
     1  C    0.000067  -0.913871
     5  C   -0.000067   0.913871
 Electronic spatial extent (au):  <R**2>=            349.1238
 Charge=             -0.0000 electrons
 Dipole moment (field-independent basis, Debye):
    X=              0.0001    Y=             -0.0042    Z=              0.0001  Tot=              0.0042
 Quadrupole moment (field-independent basis, Debye-Ang):
   XX=            -14.4422   YY=            -18.0478   ZZ=            -14.4408
   XY=              0.0080   XZ=              0.0006   YZ=              0.0020
 Traceless Quadrupole moment (field-independent basis, Debye-Ang):
   XX=              1.2014   YY=             -2.4042   ZZ=              1.2028
   XY=              0.0080   XZ=              0.0006   YZ=              0.0020
 Octapole moment (field-independent basis, Debye-Ang**2):
  XXX=             -0.1374  YYY=             81.2246  ZZZ=             -0.0284  XYY=             -0.0903
  XXY=             21.6647  XXZ=             -0.0095  XZZ=             -0.0532  YZZ=             21.6607
  YYZ=             -0.0130  XYZ=              0.0018
 Hexadecapole moment (field-independent basis, Debye-Ang**3):
 XXXX=            -29.8918 YYYY=           -512.4648 ZZZZ=            -29.8944 XXXY=              0.4106
 XXXZ=              0.0176 YYYX=              0.6621 YYYZ=              0.1090 ZZZX=             -0.0059
 ZZZY=              2.8473 XXYY=            -74.7702 XXZZ=             -9.9609 YYZZ=            -74.7513
 XXYZ=             -2.7350 YYXZ=             -0.0181 ZZXY=              0.1559
 N-N= 3.311864274594D+01 E-N=-2.500284152487D+02  KE= 7.909187216960D+01
                          Isotropic Fermi Contact Couplings
        Atom                 a.u.       MegaHertz       Gauss      10(-4) cm-1
     1  C(13)             -0.00623      -3.50261      -1.24982      -1.16834
     2  H(1)               0.01337      29.88762      10.66465       9.96944
     3  H(1)               0.01338      29.89788      10.66831       9.97286
     4  H(1)               0.01338      29.90090      10.66938       9.97387
     5  C(13)              0.00634       3.56245       1.27117       1.18831
     6  H(1)              -0.01338     -29.89487     -10.66723      -9.97186
     7  H(1)              -0.01338     -29.89649     -10.66781      -9.97239
     8  H(1)              -0.01338     -29.89479     -10.66720      -9.97183
 --------------------------------------------------------
       Center         ----  Spin Dipole Couplings  ----
                      3XX-RR        3YY-RR        3ZZ-RR
 --------------------------------------------------------
     1   Atom        0.517575     -1.035192      0.517617
     2   Atom        0.066193      0.005192     -0.071385
     3   Atom       -0.037059      0.005209      0.031850
     4   Atom       -0.036923      0.005173      0.031750
     5   Atom       -0.517573      1.035220     -0.517647
     6   Atom        0.036751     -0.005179     -0.031572
     7   Atom        0.037144     -0.005155     -0.031989
     8   Atom       -0.066208     -0.005175      0.071383
 --------------------------------------------------------
                        XY            XZ            YZ
 --------------------------------------------------------
     1   Atom        0.002610      0.000006      0.001506
     2   Atom        0.000098     -0.000010      0.004138
     3   Atom        0.003631      0.059542     -0.001972
     4   Atom       -0.003778     -0.059593     -0.002175
     5   Atom       -0.004337      0.000003     -0.000333
     6   Atom       -0.003398     -0.059724      0.001856
     7   Atom        0.003631      0.059470      0.002179
     8   Atom       -0.000183      0.000234     -0.004024
 --------------------------------------------------------


 ---------------------------------------------------------------------------------
              Anisotropic Spin Dipole Couplings in Principal Axis System
 ---------------------------------------------------------------------------------

       Atom             a.u.   MegaHertz   Gauss  10(-4) cm-1        Axes

              Baa    -1.0352  -138.914   -49.568   -46.337 -0.0017  1.0000 -0.0010
     1 C(13)  Bbb     0.5176    69.454    24.783    23.167  0.9786  0.0014 -0.2060
              Bcc     0.5176    69.460    24.785    23.169  0.2060  0.0013  0.9786
 
              Baa    -0.0716   -38.207   -13.633   -12.744  0.0001 -0.0538  0.9986
     2 H(1)   Bbb     0.0054     2.889     1.031     0.964 -0.0016  0.9986  0.0538
              Bcc     0.0662    35.318    12.602    11.781  1.0000  0.0016 -0.0000
 
              Baa    -0.0716   -38.212   -13.635   -12.746  0.8650 -0.0537 -0.4988
     3 H(1)   Bbb     0.0054     2.897     1.034     0.966  0.0456  0.9986 -0.0283
              Bcc     0.0662    35.315    12.601    11.780  0.4996  0.0017  0.8662
 
              Baa    -0.0716   -38.209   -13.634   -12.745  0.8644  0.0567  0.4996
     4 H(1)   Bbb     0.0054     2.892     1.032     0.965 -0.0490  0.9984 -0.0285
              Bcc     0.0662    35.317    12.602    11.780 -0.5004  0.0001  0.8658
 
              Baa    -0.5176   -69.463   -24.786   -23.170 -0.0281  0.0001  0.9996
     5 C(13)  Bbb    -0.5176   -69.455   -24.783   -23.168  0.9996  0.0028  0.0281
              Bcc     1.0352   138.918    49.569    46.338 -0.0028  1.0000 -0.0002
 
              Baa    -0.0662   -35.329   -12.606   -11.784  0.5018  0.0016  0.8650
     6 H(1)   Bbb    -0.0054    -2.867    -1.023    -0.956  0.0427  0.9987 -0.0267
              Bcc     0.0716    38.196    13.629    12.741  0.8639 -0.0504 -0.5011
 
              Baa    -0.0662   -35.326   -12.605   -11.783 -0.4987 -0.0013  0.8668
     7 H(1)   Bbb    -0.0054    -2.875    -1.026    -0.959 -0.0484  0.9985 -0.0264
              Bcc     0.0716    38.201    13.631    12.742  0.8654  0.0551  0.4980
 
              Baa    -0.0662   -35.326   -12.605   -11.783  1.0000  0.0029 -0.0016
     8 H(1)   Bbb    -0.0054    -2.873    -1.025    -0.958 -0.0028  0.9986  0.0524
              Bcc     0.0716    38.199    13.630    12.742  0.0018 -0.0523  0.9986
 

 ---------------------------------------------------------------------------------


 Test job not archived.
 1\1\GINC-NODE-6-10\POpt\UwB97XD\Aug-CC-pVTZ\C2H6\CAVALLOTTI\27-May-202
 3\1\\# uwb97xd/aug-cc-pvtz opt=(noeig,intern,maxcyc=50) # int=ultrafin
 e nosym iop(7/33=1) guess=(mix,always)\\geom 0\\0,1\C\H,1,R1\H,1,R2,2,
 A2\H,1,R3,2,A3,3,D3,0\C,1,RTS,2,AABS1,3,BABS1,0\H,5,R21,1,AABS2,2,BABS
 2,0\H,5,R22,6,A22,1,BABS3,0\H,5,R23,6,A23,7,D23,0\\BABS3=90.08897307\B
 ABS2=59.88507852\AABS2=90.09185857\BABS1=89.8749662\AABS1=89.97605506\
 D3=179.8076\R21=1.0782\R22=1.0782\R23=1.0782\A22=119.9721\A23=120.0207
 \D23=179.8076\A3=120.0207\A2=119.9721\R3=1.0782\R2=1.0782\R1=1.0782\RT
 S=3.\\Version=EM64L-G09RevD.01\HF=-79.6876026\S2=0.83156\S2-1=0.\S2A=0
 .038818\RMSD=7.077e-09\RMSF=3.969e-03\Dipole=0.0000578,-0.0016429,0.00
 00381\Quadrupole=0.8932369,-1.7874752,0.8942382,0.0059304,0.0004648,0.
 0014623\PG=C01 [X(C2H6)]\\@


 FESTINA LENTE!
     - IMPERATOR AUGUSTUS 
 Job cpu time:       0 days  2 hours 58 minutes 23.8 seconds.
 File lengths (MBytes):  RWF=    106 Int=      0 D2E=      0 Chk=      7 Scr=      1
 Normal termination of Gaussian 09 at Sat May 27 09:34:40 2023.
