 Entering Gaussian System, Link 0=g09
 Input=geom.com
 Output=geom.log
 Initial command:
 /software/cinetica/g09d1/g09d01/d01/build-node-6-2-59348/src/main/l1.exe "/scratch/cc/139122/Gau-144504.inp" -scrdir="/scratch/cc/139122/"
 Entering Link 1 = /software/cinetica/g09d1/g09d01/d01/build-node-6-2-59348/src/main/l1.exe PID=    144505.
  
 Copyright (c) 1988,1990,1992,1993,1995,1998,2003,2009,2013,
            Gaussian, Inc.  All Rights Reserved.
  
 This is part of the Gaussian(R) 09 program.  It is based on
 the Gaussian(R) 03 system (copyright 2003, Gaussian, Inc.),
 the Gaussian(R) 98 system (copyright 1998, Gaussian, Inc.),
 the Gaussian(R) 94 system (copyright 1995, Gaussian, Inc.),
 the Gaussian 92(TM) system (copyright 1992, Gaussian, Inc.),
 the Gaussian 90(TM) system (copyright 1990, Gaussian, Inc.),
 the Gaussian 88(TM) system (copyright 1988, Gaussian, Inc.),
 the Gaussian 86(TM) system (copyright 1986, Carnegie Mellon
 University), and the Gaussian 82(TM) system (copyright 1983,
 Carnegie Mellon University). Gaussian is a federally registered
 trademark of Gaussian, Inc.
  
 This software contains proprietary and confidential information,
 including trade secrets, belonging to Gaussian, Inc.
  
 This software is provided under written license and may be
 used, copied, transmitted, or stored only in accord with that
 written license.
  
 The following legend is applicable only to US Government
 contracts under FAR:
  
                    RESTRICTED RIGHTS LEGEND
  
 Use, reproduction and disclosure by the US Government is
 subject to restrictions as set forth in subparagraphs (a)
 and (c) of the Commercial Computer Software - Restricted
 Rights clause in FAR 52.227-19.
  
 Gaussian, Inc.
 340 Quinnipiac St., Bldg. 40, Wallingford CT 06492
  
  
 ---------------------------------------------------------------
 Warning -- This program may not be used in any manner that
 competes with the business of Gaussian, Inc. or will provide
 assistance to any competitor of Gaussian, Inc.  The licensee
 of this program is prohibited from giving any competitor of
 Gaussian, Inc. access to this program.  By using this program,
 the user acknowledges that Gaussian, Inc. is engaged in the
 business of creating and licensing software in the field of
 computational chemistry and represents and warrants to the
 licensee that it is not a competitor of Gaussian, Inc. and that
 it will not use this program in any manner prohibited above.
 ---------------------------------------------------------------
  

 Cite this work as:
 Gaussian 09, Revision D.01,
 M. J. Frisch, G. W. Trucks, H. B. Schlegel, G. E. Scuseria, 
 M. A. Robb, J. R. Cheeseman, G. Scalmani, V. Barone, B. Mennucci, 
 G. A. Petersson, H. Nakatsuji, M. Caricato, X. Li, H. P. Hratchian, 
 A. F. Izmaylov, J. Bloino, G. Zheng, J. L. Sonnenberg, M. Hada, 
 M. Ehara, K. Toyota, R. Fukuda, J. Hasegawa, M. Ishida, T. Nakajima, 
 Y. Honda, O. Kitao, H. Nakai, T. Vreven, J. A. Montgomery, Jr., 
 J. E. Peralta, F. Ogliaro, M. Bearpark, J. J. Heyd, E. Brothers, 
 K. N. Kudin, V. N. Staroverov, T. Keith, R. Kobayashi, J. Normand, 
 K. Raghavachari, A. Rendell, J. C. Burant, S. S. Iyengar, J. Tomasi, 
 M. Cossi, N. Rega, J. M. Millam, M. Klene, J. E. Knox, J. B. Cross, 
 V. Bakken, C. Adamo, J. Jaramillo, R. Gomperts, R. E. Stratmann, 
 O. Yazyev, A. J. Austin, R. Cammi, C. Pomelli, J. W. Ochterski, 
 R. L. Martin, K. Morokuma, V. G. Zakrzewski, G. A. Voth, 
 P. Salvador, J. J. Dannenberg, S. Dapprich, A. D. Daniels, 
 O. Farkas, J. B. Foresman, J. V. Ortiz, J. Cioslowski, 
 and D. J. Fox, Gaussian, Inc., Wallingford CT, 2013.
 
 ******************************************
 Gaussian 09:  EM64L-G09RevD.01 24-Apr-2013
                27-May-2023 
 ******************************************
 %mem=400MW
 %chk=tmp
 %NProcShared= 32
 Will use up to   32 processors via shared memory.
 ----------------------------------------------------------------------
 # uwb97xd/aug-cc-pvtz opt=(noeig,intern,maxcyc=50) # int=ultrafine nos
 ym freq iop(7/33=1) guess=(mix,always)
 ----------------------------------------------------------------------
 1/6=50,10=7,11=1,14=-1,18=40,26=4,38=1/1,3;
 2/12=2,15=1,17=6,18=5,29=3,40=1/2;
 3/5=16,6=1,7=10,11=2,16=1,25=1,30=1,71=1,74=-58,75=-5,116=2/1,2,3;
 4/13=-1/1;
 5/5=2,38=5/2;
 6/7=2,8=2,9=2,10=2,28=1/1;
 7/29=1,30=1,33=1/1,2,3,16;
 1/6=50,10=7,11=1,14=-1,18=40,26=4/3(2);
 2/15=1,29=3/2;
 99//99;
 2/15=1,29=3/2;
 3/5=16,6=1,7=10,11=2,16=1,25=1,30=1,71=1,74=-58,75=-5,116=2/1,2,3;
 4/13=-1/1;
 5/5=2,38=5/2;
 7/30=1,33=1/1,2,3,16;
 1/6=50,11=1,14=-1,18=40,26=4/3(-5);
 2/15=1,29=3/2;
 6/7=2,8=2,9=2,10=2,19=2,28=1/1;
 99/9=1/99;
 ------
 geom 0
 ------
 Symbolic Z-matrix:
 Charge =  0 Multiplicity = 1
 C1
 H2                   C1   R1
 H3                   C1   R2       H2   A2
 H4                   C1   R3       H2   A3       H3   D3       0
 C21                  C1   BB       H2   ANG1     H3   DH1      0
 H22                  C21  R21      C1   ANG2     H2   DH2      0
 H23                  C21  R22      H22  A22      C1   DH3      0
 H24                  C21  R23      H22  A23      H23  D23      0
       Variables:
  R1                    1.0834                   
  R2                    1.0835                   
  R3                    1.0835                   
  A2                  112.8034                   
  A3                  112.8036                   
  D3                  230.784                    
  R21                   1.0834                   
  R22                   1.0835                   
  R23                   1.0835                   
  A22                 112.8017                   
  A23                 112.8053                   
  D23                 129.2159                   
  ANG2                105.9023                   
  DH3                 115.383                    
  DH2                  60.0096                   
  DH1                 115.3954                   
  ANG1                105.8979                   
       Constants:
  BB                    3.                       
 

 GradGradGradGradGradGradGradGradGradGradGradGradGradGradGradGradGradGrad
 Berny optimization.
 Initialization pass.
                       ----------------------------
                       !    Initial Parameters    !
                       ! (Angstroms and Degrees)  !
 ----------------------                            ----------------------
 !      Name          Value   Derivative information (Atomic Units)     !
 ------------------------------------------------------------------------
 !       R1          1.0834   estimate D2E/DX2                          !
 !       R2          1.0835   estimate D2E/DX2                          !
 !       R3          1.0835   estimate D2E/DX2                          !
 !       A2        112.8034   estimate D2E/DX2                          !
 !       A3        112.8036   estimate D2E/DX2                          !
 !       D3        230.784    estimate D2E/DX2                          !
 !       R21         1.0834   estimate D2E/DX2                          !
 !       R22         1.0835   estimate D2E/DX2                          !
 !       R23         1.0835   estimate D2E/DX2                          !
 !       A22       112.8017   estimate D2E/DX2                          !
 !       A23       112.8053   estimate D2E/DX2                          !
 !       D23       129.2159   estimate D2E/DX2                          !
 !      ANG2       105.9023   estimate D2E/DX2                          !
 !       DH3       115.383    estimate D2E/DX2                          !
 !       DH2        60.0096   estimate D2E/DX2                          !
 !       DH1       115.3954   estimate D2E/DX2                          !
 !      ANG1       105.8979   estimate D2E/DX2                          !
 !       BB          3.0      Frozen                                    !
 ------------------------------------------------------------------------
 Trust Radius=3.00D-01 FncErr=1.00D-07 GrdErr=1.00D-06
 Number of steps in this run=     50 maximum allowed number of steps=    100.
 GradGradGradGradGradGradGradGradGradGradGradGradGradGradGradGradGradGrad

 ---------------------------------------------------------------------------------------------------
                            Z-MATRIX (ANGSTROMS AND DEGREES)
   CD    Cent   Atom    N1       Length/X        N2       Alpha/Y        N3        Beta/Z          J
 ---------------------------------------------------------------------------------------------------
      1      1  C 
      2      2  H        1   1.083400(     1)
      3      3  H        1   1.083500(     2)      2  112.803(     8)
      4      4  H        1   1.083500(     3)      2  112.804(     9)      3  230.784(    14)      0
      5      5  C        1   3.000000(     4)      2  105.898(    10)      3  115.395(    15)      0
      6      6  H        5   1.083400(     5)      1  105.902(    11)      2   60.010(    16)      0
      7      7  H        5   1.083500(     6)      6  112.802(    12)      1  115.383(    17)      0
      8      8  H        5   1.083500(     7)      6  112.805(    13)      7  129.216(    18)      0
 ---------------------------------------------------------------------------------------------------
                         Z-Matrix orientation:                         
 ---------------------------------------------------------------------
 Center     Atomic      Atomic             Coordinates (Angstroms)
 Number     Number       Type             X           Y           Z
 ---------------------------------------------------------------------
      1          6           0        0.000000    0.000000    0.000000
      2          1           0        0.000000    0.000000    1.083400
      3          1           0        0.998814    0.000000   -0.419932
      4          1           0       -0.631495    0.773848   -0.419936
      5          6           0       -1.237378   -2.606451   -0.821772
      6          1           0       -2.236230   -2.606218   -0.402189
      7          1           0       -0.605740   -3.380219   -0.401903
      8          1           0       -1.237005   -2.606830   -1.905272
 ---------------------------------------------------------------------
                    Distance matrix (angstroms):
                    1          2          3          4          5
     1  C    0.000000
     2  H    1.083400   0.000000
     3  H    1.083500   1.804893   0.000000
     4  H    1.083500   1.804895   1.804646   0.000000
     5  C    3.000000   3.457509   3.457689   3.457598   0.000000
     6  H    3.457579   3.741667   4.154298   3.741702   1.083400
     7  H    3.457503   3.741514   3.741764   4.154186   1.083500
     8  H    3.457717   4.154263   3.741748   3.741904   1.083500
                    6          7          8
     6  H    0.000000
     7  H    1.804875   0.000000
     8  H    1.804912   1.804645   0.000000
 Symmetry turned off by external request.
 Stoichiometry    C2H6
 Framework group  C1[X(C2H6)]
 Deg. of freedom    18
 Full point group                 C1      NOp   1
 Rotational constants (GHZ):     76.9730380      6.5799352      6.5798780
 Standard basis: Aug-CC-pVTZ (5D, 7F)
   230 basis functions,   306 primitive gaussians,   260 cartesian basis functions
     9 alpha electrons        9 beta electrons
       nuclear repulsion energy        32.4325677690 Hartrees.
 NAtoms=    8 NActive=    8 NUniq=    8 SFac= 1.00D+00 NAtFMM=   60 NAOKFM=F Big=F
 Integral buffers will be    131072 words long.
 Raffenetti 2 integral format.
 Two-electron integral symmetry is turned off.
 Nuclear repulsion after empirical dispersion term =       32.4312060162 Hartrees.
 One-electron integrals computed using PRISM.
 NBasis=   230 RedAO= T EigKep=  9.92D-05  NBF=   230
 NBsUse=   230 1.00D-06 EigRej= -1.00D+00 NBFU=   230
 ExpMin= 2.53D-02 ExpMax= 8.24D+03 ExpMxC= 2.81D+02 IAcc=3 IRadAn=         5 AccDes= 0.00D+00
 Harris functional with IExCor= 4639 and IRadAn=       5 diagonalized for initial guess.
 HarFok:  IExCor= 4639 AccDes= 0.00D+00 IRadAn=         5 IDoV= 1 UseB2=F ITyADJ=14
 ICtDFT=  3500011 ScaDFX=  1.000000  1.000000  1.000000  1.000000
 FoFCou: FMM=F IPFlag=           0 FMFlag=      100000 FMFlg1=           0
         NFxFlg=           0 DoJE=T BraDBF=F KetDBF=T FulRan=T
         wScrn=  0.000000 ICntrl=     500 IOpCl=  0 I1Cent=   200000004 NGrid=           0
         NMat0=    1 NMatS0=      1 NMatT0=    0 NMatD0=    1 NMtDS0=    0 NMtDT0=    0
 Symmetry not used in FoFCou.
 Mixing orbitals, IMix= 1 IMixAn=  0 NRI=1 NE=    9 Coef=  7.07106781D-01  7.07106781D-01
 Mixing orbitals, IMix= 1 IMixAn=  0 NRI=1 NE=    9 Coef= -7.07106781D-01  7.07106781D-01
 Initial guess <Sx>= 0.0000 <Sy>= 0.0000 <Sz>= 0.0000 <S**2>= 1.0000 S= 0.6180
 Requested convergence on RMS density matrix=1.00D-08 within 128 cycles.
 Requested convergence on MAX density matrix=1.00D-06.
 Requested convergence on             energy=1.00D-06.
 No special actions if energy rises.
 SCF Done:  E(UwB97XD) =  -79.6782448564     A.U. after   11 cycles
            NFock= 11  Conv=0.97D-08     -V/T= 2.0079
 <Sx>= 0.0000 <Sy>= 0.0000 <Sz>= 0.0000 <S**2>= 0.7727 S= 0.5113
 <L.S>=  0.00000000000    
 Annihilation of the first spin contaminant:
 S**2 before annihilation     0.7727,   after     0.0266

 **********************************************************************

            Population analysis using the SCF density.

 **********************************************************************

 Alpha  occ. eigenvalues --  -10.30115 -10.29069  -0.78456  -0.74729  -0.49487
 Alpha  occ. eigenvalues --   -0.49479  -0.48156  -0.48148  -0.32927
 Alpha virt. eigenvalues --    0.00182   0.03360   0.04767   0.04767   0.05147
 Alpha virt. eigenvalues --    0.06715   0.06716   0.10984   0.13036   0.13037
 Alpha virt. eigenvalues --    0.13345   0.13900   0.13901   0.14547   0.15618
 Alpha virt. eigenvalues --    0.20370   0.20372   0.20963   0.20964   0.23531
 Alpha virt. eigenvalues --    0.23532   0.30141   0.31251   0.31475   0.31735
 Alpha virt. eigenvalues --    0.31735   0.33063   0.33064   0.33284   0.33478
 Alpha virt. eigenvalues --    0.33479   0.35955   0.36716   0.37699   0.38467
 Alpha virt. eigenvalues --    0.39641   0.39643   0.40530   0.40532   0.42067
 Alpha virt. eigenvalues --    0.44027   0.44028   0.45117   0.45120   0.46003
 Alpha virt. eigenvalues --    0.48931   0.48931   0.50413   0.50417   0.59862
 Alpha virt. eigenvalues --    0.63274   0.63276   0.68583   0.68588   0.69737
 Alpha virt. eigenvalues --    0.73975   0.76671   0.76675   0.76699   0.77444
 Alpha virt. eigenvalues --    0.77447   0.77680   0.82281   0.84812   0.85577
 Alpha virt. eigenvalues --    0.85578   0.90990   0.90990   0.91883   0.92495
 Alpha virt. eigenvalues --    0.93297   0.96992   0.96996   0.97238   0.97242
 Alpha virt. eigenvalues --    0.98113   0.98118   0.99438   0.99438   1.00831
 Alpha virt. eigenvalues --    1.01423   1.07135   1.07637   1.07641   1.09276
 Alpha virt. eigenvalues --    1.09277   1.12815   1.12815   1.13757   1.16249
 Alpha virt. eigenvalues --    1.16772   1.16775   1.19247   1.19326   1.19327
 Alpha virt. eigenvalues --    1.21786   1.21788   1.32303   1.35442   1.35447
 Alpha virt. eigenvalues --    1.39149   1.39151   1.46365   1.48749   1.48751
 Alpha virt. eigenvalues --    1.50625   1.51774   1.52653   1.53640   1.53641
 Alpha virt. eigenvalues --    1.55207   1.58086   1.58089   1.60538   1.60539
 Alpha virt. eigenvalues --    1.61340   1.64430   1.76247   1.76403   1.76411
 Alpha virt. eigenvalues --    1.77641   1.77648   1.78994   1.89406   1.89416
 Alpha virt. eigenvalues --    1.93420   1.96572   1.96578   2.02618   2.04894
 Alpha virt. eigenvalues --    2.04897   2.09812   2.09816   2.12920   2.16540
 Alpha virt. eigenvalues --    2.78369   2.82853   2.87677   2.87682   2.89607
 Alpha virt. eigenvalues --    2.90002   2.90007   3.03651   3.19067   3.19073
 Alpha virt. eigenvalues --    3.20998   3.21003   3.30635   3.33429   3.33431
 Alpha virt. eigenvalues --    3.33472   3.35323   3.35324   3.38230   3.38871
 Alpha virt. eigenvalues --    3.46877   3.46880   3.55199   3.55204   3.56827
 Alpha virt. eigenvalues --    3.57348   3.57352   3.61118   3.61122   3.70734
 Alpha virt. eigenvalues --    3.73476   3.73480   3.76051   3.76055   3.80418
 Alpha virt. eigenvalues --    3.81266   3.82259   3.84931   3.92338   3.92341
 Alpha virt. eigenvalues --    3.95538   3.95540   4.16440   4.19827   4.19831
 Alpha virt. eigenvalues --    4.23818   4.26598   4.26604   4.47702   4.49266
 Alpha virt. eigenvalues --    4.49268   4.51049   4.51053   4.60847   4.62903
 Alpha virt. eigenvalues --    4.62905   4.63054   4.68362   4.68372   4.70594
 Alpha virt. eigenvalues --    4.85862   4.92719   4.93066   4.93088   4.94077
 Alpha virt. eigenvalues --    4.94099   5.14581   5.14594   5.14600   5.18907
 Alpha virt. eigenvalues --    5.18924   5.25336   5.55378   5.56899   5.65356
 Alpha virt. eigenvalues --    5.69231   5.69259   5.70397   5.70425   5.79216
 Alpha virt. eigenvalues --    6.28020   6.28040   6.30377   6.30395  15.88828
 Alpha virt. eigenvalues --   15.93290
  Beta  occ. eigenvalues --  -10.30115 -10.29069  -0.78456  -0.74729  -0.49487
  Beta  occ. eigenvalues --   -0.49479  -0.48156  -0.48148  -0.32927
  Beta virt. eigenvalues --    0.00182   0.03360   0.04767   0.04767   0.05147
  Beta virt. eigenvalues --    0.06715   0.06716   0.10984   0.13036   0.13037
  Beta virt. eigenvalues --    0.13345   0.13900   0.13900   0.14547   0.15618
  Beta virt. eigenvalues --    0.20370   0.20372   0.20963   0.20964   0.23531
  Beta virt. eigenvalues --    0.23532   0.30141   0.31251   0.31475   0.31735
  Beta virt. eigenvalues --    0.31735   0.33063   0.33063   0.33284   0.33478
  Beta virt. eigenvalues --    0.33479   0.35955   0.36716   0.37699   0.38467
  Beta virt. eigenvalues --    0.39641   0.39643   0.40530   0.40532   0.42067
  Beta virt. eigenvalues --    0.44027   0.44027   0.45117   0.45120   0.46003
  Beta virt. eigenvalues --    0.48931   0.48931   0.50413   0.50417   0.59862
  Beta virt. eigenvalues --    0.63274   0.63276   0.68583   0.68588   0.69737
  Beta virt. eigenvalues --    0.73975   0.76672   0.76674   0.76699   0.77444
  Beta virt. eigenvalues --    0.77447   0.77680   0.82281   0.84812   0.85577
  Beta virt. eigenvalues --    0.85578   0.90989   0.90990   0.91883   0.92495
  Beta virt. eigenvalues --    0.93297   0.96992   0.96996   0.97238   0.97242
  Beta virt. eigenvalues --    0.98114   0.98118   0.99438   0.99438   1.00831
  Beta virt. eigenvalues --    1.01423   1.07135   1.07637   1.07641   1.09276
  Beta virt. eigenvalues --    1.09277   1.12815   1.12815   1.13757   1.16249
  Beta virt. eigenvalues --    1.16772   1.16775   1.19247   1.19326   1.19327
  Beta virt. eigenvalues --    1.21786   1.21788   1.32303   1.35442   1.35447
  Beta virt. eigenvalues --    1.39149   1.39151   1.46365   1.48749   1.48751
  Beta virt. eigenvalues --    1.50625   1.51774   1.52653   1.53640   1.53641
  Beta virt. eigenvalues --    1.55207   1.58086   1.58089   1.60538   1.60539
  Beta virt. eigenvalues --    1.61340   1.64430   1.76247   1.76403   1.76411
  Beta virt. eigenvalues --    1.77641   1.77648   1.78994   1.89406   1.89416
  Beta virt. eigenvalues --    1.93420   1.96572   1.96579   2.02618   2.04894
  Beta virt. eigenvalues --    2.04897   2.09812   2.09816   2.12920   2.16540
  Beta virt. eigenvalues --    2.78369   2.82853   2.87677   2.87682   2.89607
  Beta virt. eigenvalues --    2.90003   2.90006   3.03651   3.19067   3.19073
  Beta virt. eigenvalues --    3.20998   3.21003   3.30635   3.33429   3.33431
  Beta virt. eigenvalues --    3.33472   3.35323   3.35325   3.38230   3.38871
  Beta virt. eigenvalues --    3.46877   3.46880   3.55199   3.55204   3.56827
  Beta virt. eigenvalues --    3.57349   3.57351   3.61118   3.61122   3.70734
  Beta virt. eigenvalues --    3.73476   3.73480   3.76051   3.76055   3.80418
  Beta virt. eigenvalues --    3.81266   3.82259   3.84931   3.92338   3.92341
  Beta virt. eigenvalues --    3.95538   3.95540   4.16440   4.19827   4.19831
  Beta virt. eigenvalues --    4.23818   4.26598   4.26604   4.47702   4.49266
  Beta virt. eigenvalues --    4.49267   4.51049   4.51054   4.60847   4.62903
  Beta virt. eigenvalues --    4.62906   4.63054   4.68362   4.68372   4.70594
  Beta virt. eigenvalues --    4.85862   4.92719   4.93066   4.93088   4.94076
  Beta virt. eigenvalues --    4.94099   5.14581   5.14594   5.14600   5.18906
  Beta virt. eigenvalues --    5.18924   5.25336   5.55378   5.56899   5.65356
  Beta virt. eigenvalues --    5.69230   5.69260   5.70397   5.70425   5.79216
  Beta virt. eigenvalues --    6.28021   6.28039   6.30376   6.30396  15.88828
  Beta virt. eigenvalues --   15.93290
          Condensed to atoms (all electrons):
               1          2          3          4          5          6
     1  C    5.808807   0.361373   0.361369   0.361352   0.060560  -0.001574
     2  H    0.361373   0.304666   0.009814   0.009804  -0.001572  -0.000168
     3  H    0.361369   0.009814   0.304700   0.009814  -0.001570  -0.000014
     4  H    0.361352   0.009804   0.009814   0.304687  -0.001572  -0.000168
     5  C    0.060560  -0.001572  -0.001570  -0.001572   5.808806   0.361376
     6  H   -0.001574  -0.000168  -0.000014  -0.000168   0.361376   0.304666
     7  H   -0.001573  -0.000167  -0.000167  -0.000014   0.361347   0.009811
     8  H   -0.001567  -0.000014  -0.000167  -0.000167   0.361372   0.009813
               7          8
     1  C   -0.001573  -0.001567
     2  H   -0.000167  -0.000014
     3  H   -0.000167  -0.000167
     4  H   -0.000014  -0.000167
     5  C    0.361347   0.361372
     6  H    0.009811   0.009813
     7  H    0.304690   0.009807
     8  H    0.009807   0.304698
          Atomic-Atomic Spin Densities.
               1          2          3          4          5          6
     1  C   -0.833778  -0.019288  -0.019283  -0.019251  -0.000000   0.003000
     2  H   -0.019288   0.026173  -0.002965  -0.002976  -0.002997   0.000000
     3  H   -0.019283  -0.002965   0.026178  -0.002968  -0.002994   0.000000
     4  H   -0.019251  -0.002976  -0.002968   0.026189  -0.002995  -0.000000
     5  C   -0.000000  -0.002997  -0.002994  -0.002995   0.833778   0.019308
     6  H    0.003000   0.000000   0.000000  -0.000000   0.019308  -0.026167
     7  H    0.002996   0.000000   0.000000   0.000000   0.019250   0.002968
     8  H    0.002990  -0.000000  -0.000000  -0.000000   0.019262   0.002965
               7          8
     1  C    0.002996   0.002990
     2  H    0.000000  -0.000000
     3  H    0.000000  -0.000000
     4  H    0.000000  -0.000000
     5  C    0.019250   0.019262
     6  H    0.002968   0.002965
     7  H   -0.026189   0.002976
     8  H    0.002976  -0.026184
 Mulliken charges and spin densities:
               1          2
     1  C   -0.948748  -0.882613
     2  H    0.316264  -0.002051
     3  H    0.316222  -0.002031
     4  H    0.316263  -0.002001
     5  C   -0.948748   0.882613
     6  H    0.316256   0.002075
     7  H    0.316266   0.002001
     8  H    0.316225   0.002009
 Sum of Mulliken charges =  -0.00000   0.00000
 Mulliken charges and spin densities with hydrogens summed into heavy atoms:
               1          2
     1  C    0.000000  -0.888697
     5  C   -0.000000   0.888697
 Electronic spatial extent (au):  <R**2>=            365.9360
 Charge=             -0.0000 electrons
 Dipole moment (field-independent basis, Debye):
    X=              0.0001    Y=             -0.0000    Z=              0.0000  Tot=              0.0001
 Quadrupole moment (field-independent basis, Debye-Ang):
   XX=            -14.7330   YY=            -14.0675   ZZ=            -14.8406
   XY=              0.4078   XZ=              0.1278   YZ=              0.2708
 Traceless Quadrupole moment (field-independent basis, Debye-Ang):
   XX=             -0.1860   YY=              0.4796   ZZ=             -0.2936
   XY=              0.4078   XZ=              0.1278   YZ=              0.2708
 Octapole moment (field-independent basis, Debye-Ang**2):
  XXX=             27.3422  YYY=             55.0001  ZZZ=             18.2959  XYY=              7.6411
  XXY=             18.6954  XXZ=              5.8960  XZZ=              9.0775  YZZ=             19.1182
  YYZ=              5.0728  XYZ=             -0.5017
 Hexadecapole moment (field-independent basis, Debye-Ang**3):
 XXXX=            -97.9251 YYYY=           -342.0638 ZZZZ=            -57.7626 XXXY=            -72.0393
 XXXZ=            -25.6519 YYYX=            -77.5636 YYYZ=            -51.5071 ZZZX=            -22.0912
 ZZZY=            -46.5276 XXYY=            -74.0845 XXZZ=            -28.2780 YYZZ=            -68.0843
 XXYZ=            -17.5250 YYXZ=             -7.1231 ZZXY=            -24.4012
 N-N= 3.243120601619D+01 E-N=-2.486249313193D+02  KE= 7.905571929835D+01
                          Isotropic Fermi Contact Couplings
        Atom                 a.u.       MegaHertz       Gauss      10(-4) cm-1
     1  C(13)             -0.15859     -89.14285     -31.80838     -29.73485
     2  H(1)               0.00692      15.46377       5.51786       5.15816
     3  H(1)               0.00692      15.45971       5.51641       5.15681
     4  H(1)               0.00692      15.47331       5.52126       5.16134
     5  C(13)              0.15859      89.14315      31.80849      29.73495
     6  H(1)              -0.00691     -15.45165      -5.51353      -5.15412
     7  H(1)              -0.00692     -15.47417      -5.52157      -5.16163
     8  H(1)              -0.00692     -15.47088      -5.52039      -5.16053
 --------------------------------------------------------
       Center         ----  Spin Dipole Couplings  ----
                      3XX-RR        3YY-RR        3ZZ-RR
 --------------------------------------------------------
     1   Atom        0.225360     -0.581879      0.356519
     2   Atom        0.048634      0.016787     -0.065421
     3   Atom       -0.047145      0.016789      0.030356
     4   Atom       -0.004399     -0.025959      0.030358
     5   Atom       -0.225357      0.582004     -0.356647
     6   Atom        0.047175     -0.016776     -0.030399
     7   Atom        0.004420      0.025952     -0.030372
     8   Atom       -0.048622     -0.016793      0.065415
 --------------------------------------------------------
                        XY            XZ            YZ
 --------------------------------------------------------
     1   Atom       -0.494622     -0.155987     -0.328601
     2   Atom       -0.019512      0.001595      0.003360
     3   Atom       -0.004455      0.041862     -0.019287
     4   Atom        0.030426     -0.041405      0.020236
     5   Atom        0.494677      0.155892      0.328383
     6   Atom        0.004427     -0.041845      0.019293
     7   Atom       -0.030429      0.041402     -0.020232
     8   Atom        0.019511     -0.001640     -0.003320
 --------------------------------------------------------


 ---------------------------------------------------------------------------------
              Anisotropic Spin Dipole Couplings in Principal Axis System
 ---------------------------------------------------------------------------------

       Atom             a.u.   MegaHertz   Gauss  10(-4) cm-1        Axes

              Baa    -0.9203  -123.494   -44.066   -41.193  0.4124  0.8688  0.2740
     1 C(13)  Bbb     0.4601    61.746    22.033    20.596  0.5817 -0.4826  0.6547
              Bcc     0.4602    61.748    22.033    20.597 -0.7011  0.1106  0.7045
 
              Baa    -0.0656   -35.007   -12.491   -11.677 -0.0218 -0.0459  0.9987
     2 H(1)   Bbb     0.0077     4.116     1.469     1.373  0.4283  0.9022  0.0508
              Bcc     0.0579    30.890    11.022    10.304  0.9034 -0.4288  0.0000
 
              Baa    -0.0656   -35.004   -12.490   -11.676  0.9122 -0.0460 -0.4072
     3 H(1)   Bbb     0.0077     4.120     1.470     1.374  0.2129  0.9022  0.3750
              Bcc     0.0579    30.885    11.021    10.302  0.3501 -0.4288  0.8328
 
              Baa    -0.0656   -35.003   -12.490   -11.676 -0.6123  0.6777 -0.4071
     4 H(1)   Bbb     0.0077     4.119     1.470     1.374  0.5645  0.7353  0.3751
              Bcc     0.0579    30.884    11.020    10.302 -0.5536  0.0001  0.8328
 
              Baa    -0.4602   -61.750   -22.034   -20.598  0.8754 -0.2949 -0.3829
     5 C(13)  Bbb    -0.4601   -61.744   -22.032   -20.595  0.2520 -0.3976  0.8823
              Bcc     0.9203   123.494    44.066    41.193  0.4124  0.8689  0.2738
 
              Baa    -0.0579   -30.890   -11.022   -10.304  0.3498 -0.4285  0.8331
     6 H(1)   Bbb    -0.0077    -4.118    -1.469    -1.374  0.2129  0.9023  0.3748
              Bcc     0.0656    35.008    12.492    11.678  0.9123 -0.0463 -0.4069
 
              Baa    -0.0579   -30.884   -11.020   -10.302 -0.5534  0.0001  0.8329
     7 H(1)   Bbb    -0.0077    -4.120    -1.470    -1.374  0.5645  0.7354  0.3749
              Bcc     0.0656    35.004    12.490    11.676 -0.6124  0.6777 -0.4070
 
              Baa    -0.0579   -30.885   -11.021   -10.302  0.9034 -0.4289  0.0005
     8 H(1)   Bbb    -0.0077    -4.117    -1.469    -1.373  0.4283  0.9022  0.0506
              Bcc     0.0656    35.002    12.490    11.676 -0.0221 -0.0455  0.9987
 

 ---------------------------------------------------------------------------------

 DipInt: DoE/N= T T RetVal/Mat= T F Init=T NMatP=  1 IDeriv=0 Min/MaxMlt=  1  1
 Entering OneElI...
 Multipole integrals L=1 to 1 MinM= 0 MaxM= 0.
 Requested accuracy = 0.1000D-12
 PrsmSu:  NPrtUS=   1 ThrOK=F IAlg=1 NPAlg=1 LenDen=           0.
 Prism:   IPart=     0 DynPar=F LinDyn=F Incr=          33.
 PRISM was handed   419152247 working-precision words and  3393 shell-pairs
 IPart=  0 NShTot=        3393 NBatch=          44 AvBLen=        77.1
 PrSmSu:  NxtVal=             34.
 Entering OneElI...
 Calculate overlap and kinetic energy integrals
    NBasis = 260  MinDer = 1  MaxDer = 1
 Requested accuracy = 0.1000D-12
 PrsmSu:  NPrtUS=  32 ThrOK=T IAlg=1 NPAlg=1 LenDen=           0.
 Prism:   IPart=     0 DynPar=F LinDyn=F Incr=           1.
 PRISM was handed    13041997 working-precision words and  3403 shell-pairs
 PRISM was handed    13041997 working-precision words and  3403 shell-pairs
 PRISM was handed    13041997 working-precision words and  3403 shell-pairs
 PRISM was handed    13041997 working-precision words and  3403 shell-pairs
 PRISM was handed    13041997 working-precision words and  3403 shell-pairs
 PRISM was handed    13041997 working-precision words and  3403 shell-pairs
 PRISM was handed    13041997 working-precision words and  3403 shell-pairs
 PRISM was handed    13041997 working-precision words and  3403 shell-pairs
 PRISM was handed    13041997 working-precision words and  3403 shell-pairs
 PRISM was handed    13041997 working-precision words and  3403 shell-pairs
 PRISM was handed    13041997 working-precision words and  3403 shell-pairs
 PRISM was handed    13041997 working-precision words and  3403 shell-pairs
 PRISM was handed    13041997 working-precision words and  3403 shell-pairs
 PRISM was handed    13041997 working-precision words and  3403 shell-pairs
 PRISM was handed    13041997 working-precision words and  3403 shell-pairs
 PRISM was handed    13041997 working-precision words and  3403 shell-pairs
 PRISM was handed    13041997 working-precision words and  3403 shell-pairs
 PRISM was handed    13041997 working-precision words and  3403 shell-pairs
 PRISM was handed    13041997 working-precision words and  3403 shell-pairs
 PRISM was handed    13041997 working-precision words and  3403 shell-pairs
 PRISM was handed    13041997 working-precision words and  3403 shell-pairs
 PRISM was handed    13041997 working-precision words and  3403 shell-pairs
 PRISM was handed    13041997 working-precision words and  3403 shell-pairs
 PRISM was handed    13041997 working-precision words and  3403 shell-pairs
 PRISM was handed    13041997 working-precision words and  3403 shell-pairs
 PRISM was handed    13041997 working-precision words and  3403 shell-pairs
 PRISM was handed    13041997 working-precision words and  3403 shell-pairs
 PRISM was handed    13041997 working-precision words and  3403 shell-pairs
 PRISM was handed    13041997 working-precision words and  3403 shell-pairs
 PRISM was handed    13041997 working-precision words and  3403 shell-pairs
 PRISM was handed    13041997 working-precision words and  3403 shell-pairs
 PRISM was handed    13041997 working-precision words and  3403 shell-pairs
 IPart=  0 NShTot=         135 NBatch=          42 AvBLen=         3.2
 IPart= 11 NShTot=         110 NBatch=          23 AvBLen=         4.8
 IPart= 13 NShTot=         106 NBatch=          22 AvBLen=         4.8
 IPart= 31 NShTot=          95 NBatch=          20 AvBLen=         4.8
 IPart=  3 NShTot=         126 NBatch=          33 AvBLen=         3.8
 IPart= 26 NShTot=          95 NBatch=          20 AvBLen=         4.8
 IPart= 20 NShTot=          97 NBatch=          21 AvBLen=         4.6
 IPart= 27 NShTot=          95 NBatch=          20 AvBLen=         4.8
 IPart=  9 NShTot=         112 NBatch=          24 AvBLen=         4.7
 IPart= 22 NShTot=          96 NBatch=          21 AvBLen=         4.6
 IPart= 19 NShTot=          97 NBatch=          21 AvBLen=         4.6
 IPart= 28 NShTot=          95 NBatch=          20 AvBLen=         4.8
 IPart= 24 NShTot=          95 NBatch=          20 AvBLen=         4.8
 IPart=  5 NShTot=         123 NBatch=          33 AvBLen=         3.7
 IPart= 10 NShTot=         111 NBatch=          23 AvBLen=         4.8
 IPart= 18 NShTot=          98 NBatch=          21 AvBLen=         4.7
 IPart=  6 NShTot=         117 NBatch=          28 AvBLen=         4.2
 IPart=  7 NShTot=         117 NBatch=          28 AvBLen=         4.2
 IPart= 15 NShTot=         104 NBatch=          21 AvBLen=         5.0
 IPart= 16 NShTot=          98 NBatch=          21 AvBLen=         4.7
 IPart= 17 NShTot=          98 NBatch=          21 AvBLen=         4.7
 IPart= 12 NShTot=         107 NBatch=          22 AvBLen=         4.9
 IPart= 23 NShTot=          96 NBatch=          21 AvBLen=         4.6
 IPart= 14 NShTot=         104 NBatch=          21 AvBLen=         5.0
 IPart=  8 NShTot=         112 NBatch=          24 AvBLen=         4.7
 IPart=  1 NShTot=         133 NBatch=          40 AvBLen=         3.3
 IPart= 29 NShTot=          95 NBatch=          20 AvBLen=         4.8
 IPart= 25 NShTot=          95 NBatch=          20 AvBLen=         4.8
 IPart=  4 NShTot=         123 NBatch=          33 AvBLen=         3.7
 IPart= 21 NShTot=          97 NBatch=          21 AvBLen=         4.6
 IPart=  2 NShTot=         126 NBatch=          33 AvBLen=         3.8
 IPart= 30 NShTot=          95 NBatch=          20 AvBLen=         4.8
 PrSmSu:  NxtVal=             33.
 Entering OneElI...
 Calculate potential energy integrals
    NBasis = 260  MinDer = 1  MaxDer = 1
 Requested accuracy = 0.1000D-12
 PrsmSu:  NPrtUS=  32 ThrOK=T IAlg=1 NPAlg=1 LenDen=           0.
 Prism:   IPart=     0 DynPar=F LinDyn=F Incr=           8.
 PRISM was handed    13048686 working-precision words and  3309 shell-pairs
 PRISM was handed    13048686 working-precision words and  3309 shell-pairs
 PRISM was handed    13048686 working-precision words and  3309 shell-pairs
 PRISM was handed    13048686 working-precision words and  3309 shell-pairs
 PRISM was handed    13048686 working-precision words and  3309 shell-pairs
 PRISM was handed    13048686 working-precision words and  3309 shell-pairs
 PRISM was handed    13048686 working-precision words and  3309 shell-pairs
 PRISM was handed    13048686 working-precision words and  3309 shell-pairs
 PRISM was handed    13048686 working-precision words and  3309 shell-pairs
 PRISM was handed    13048686 working-precision words and  3309 shell-pairs
 PRISM was handed    13048686 working-precision words and  3309 shell-pairs
 PRISM was handed    13048686 working-precision words and  3309 shell-pairs
 PRISM was handed    13048686 working-precision words and  3309 shell-pairs
 PRISM was handed    13048686 working-precision words and  3309 shell-pairs
 PRISM was handed    13048686 working-precision words and  3309 shell-pairs
 PRISM was handed    13048686 working-precision words and  3309 shell-pairs
 PRISM was handed    13048686 working-precision words and  3309 shell-pairs
 PRISM was handed    13048686 working-precision words and  3309 shell-pairs
 PRISM was handed    13048686 working-precision words and  3309 shell-pairs
 PRISM was handed    13048686 working-precision words and  3309 shell-pairs
 PRISM was handed    13048686 working-precision words and  3309 shell-pairs
 PRISM was handed    13048686 working-precision words and  3309 shell-pairs
 PRISM was handed    13048686 working-precision words and  3309 shell-pairs
 PRISM was handed    13048686 working-precision words and  3309 shell-pairs
 PRISM was handed    13048686 working-precision words and  3309 shell-pairs
 PRISM was handed    13048686 working-precision words and  3309 shell-pairs
 PRISM was handed    13048686 working-precision words and  3309 shell-pairs
 PRISM was handed    13048686 working-precision words and  3309 shell-pairs
 PRISM was handed    13048686 working-precision words and  3309 shell-pairs
 PRISM was handed    13048686 working-precision words and  3309 shell-pairs
 PRISM was handed    13048686 working-precision words and  3309 shell-pairs
 PRISM was handed    13048686 working-precision words and  3309 shell-pairs
 IPart= 10 NShTot=         832 NBatch=         104 AvBLen=         8.0
 IPart= 31 NShTot=         728 NBatch=          91 AvBLen=         8.0
 IPart= 26 NShTot=         760 NBatch=          95 AvBLen=         8.0
 IPart= 16 NShTot=         784 NBatch=          98 AvBLen=         8.0
 IPart= 12 NShTot=         816 NBatch=         102 AvBLen=         8.0
 IPart= 27 NShTot=         760 NBatch=          95 AvBLen=         8.0
 IPart= 20 NShTot=         760 NBatch=          95 AvBLen=         8.0
 IPart= 24 NShTot=         760 NBatch=          95 AvBLen=         8.0
 IPart=  6 NShTot=         904 NBatch=         113 AvBLen=         8.0
 IPart= 28 NShTot=         736 NBatch=          92 AvBLen=         8.0
 IPart=  0 NShTot=        1064 NBatch=         133 AvBLen=         8.0
 IPart= 19 NShTot=         768 NBatch=          96 AvBLen=         8.0
 IPart= 18 NShTot=         768 NBatch=          96 AvBLen=         8.0
 IPart=  7 NShTot=         904 NBatch=         113 AvBLen=         8.0
 IPart=  3 NShTot=         968 NBatch=         121 AvBLen=         8.0
 IPart= 22 NShTot=         760 NBatch=          95 AvBLen=         8.0
 IPart=  5 NShTot=         944 NBatch=         118 AvBLen=         8.0
 IPart= 15 NShTot=         800 NBatch=         100 AvBLen=         8.0
 IPart= 17 NShTot=         784 NBatch=          98 AvBLen=         8.0
 IPart= 11 NShTot=         824 NBatch=         103 AvBLen=         8.0
 IPart=  1 NShTot=        1056 NBatch=         132 AvBLen=         8.0
 IPart= 13 NShTot=         816 NBatch=         102 AvBLen=         8.0
 IPart= 29 NShTot=         736 NBatch=          92 AvBLen=         8.0
 IPart=  2 NShTot=         968 NBatch=         121 AvBLen=         8.0
 IPart=  9 NShTot=         856 NBatch=         107 AvBLen=         8.0
 IPart= 14 NShTot=         800 NBatch=         100 AvBLen=         8.0
 IPart= 23 NShTot=         760 NBatch=          95 AvBLen=         8.0
 IPart=  8 NShTot=         864 NBatch=         108 AvBLen=         8.0
 IPart=  4 NShTot=         944 NBatch=         118 AvBLen=         8.0
 IPart= 25 NShTot=         760 NBatch=          95 AvBLen=         8.0
 IPart= 21 NShTot=         760 NBatch=          95 AvBLen=         8.0
 IPart= 30 NShTot=         728 NBatch=          91 AvBLen=         8.0
 PrSmSu:  NxtVal=            257.
 l701 out
 I=    0 X=   2.635747005497D-05 Y=  -1.380647090254D-05 Z=   4.246761023285D-06
 I=    1 X=  -2.429800763835D-01 Y=  -5.123877362215D-01 Z=  -1.607058942541D-01
 I=    2 X=   9.650243578306D-02 Y=   2.036191611668D-01 Z=   2.884970628248D+00
 I=    3 X=   2.696750210489D+00 Y=   2.036186128555D-01 Z=  -1.029089211403D+00
 I=    4 X=  -1.547300404024D+00 Y=   2.217934930314D+00 Z=  -1.029054030041D+00
 I=    5 X=   2.419313951622D-01 Y=   5.125636171735D-01 Z=   1.617406305893D-01
 I=    6 X=  -2.697283435998D+00 Y=  -2.030008489129D-01 Z=   1.028254381304D+00
 I=    7 X=   1.547783228203D+00 Y=  -2.217720798224D+00 Z=   1.028694338017D+00
 I=    8 X=  -9.540335323133D-02 Y=  -2.046269381506D-01 Z=  -2.884810842460D+00
 ICntrl=      2127.
 Calling FoFJK, ICntrl=      2127 FMM=F ISym2X=0 I1Cent= 0 IOpClX= 1 NMat=1 NMatS=1 NMatT=0.
 FoFJK:  IHMeth= 1 ICntrl=    2127 DoSepK=T KAlg= 0 I1Cent=   0 FoldK=F
 IRaf=         1 NMat=   1 IRICut=       1 DoRegI=T DoRafI=F ISym2E= 0.
 FoFCou: FMM=F IPFlag=           0 FMFlag=      100000 FMFlg1=         800
         NFxFlg=           0 DoJE=F BraDBF=F KetDBF=F FulRan=T
         wScrn=  0.000000 ICntrl=    2527 IOpCl=  0 I1Cent=           0 NGrid=           0
         NMat0=    1 NMatS0=      1 NMatT0=    0 NMatD0=    1 NMtDS0=    0 NMtDT0=    0
 Symmetry not used in FoFCou.
 FoFCou:  KetSym=F NOpSet=  1 NOpAb=1 NOp=  1.
 FoFCou:  CnvScl= 1.00D+00 Thresh= 1.00D-10 IAcrcy=      10.
 PrismS was handed   419082401 working-precision words and  3366 shell-pairs
 FoFCou: LinMIO=F DoNuc=F BraDBF=F KetDBF=F HaveP=T PDBF=F HaveZ=T HaveW=F
         NIJTC =      10 NIJTAt=       0 NIJTCD=       0 NIJTT =      10
         IJTBeg=       1 IJTEnd=      10 KLTBeg=       1 KLTEnd=      10
         IPTBeg=       1 IPTEnd=      10 IPTBCv=       1 IPTECv=      10
         IZTBeg=       1 IZTEnd=      10 IZTBCv=       1 IZTECv=      10
         IWTBeg=      11 IWTEnd=      10 IWTBCv=      11 IWTECv=      10
         INTBeg=       1 INTEnd=       0 IFTBCv=       1 IFTECv=      10
 NCel replicated for PrismC:     1
 CoulSu:  IncDef=  1024 NBBP=        5666661 NTPThr=   100 NPartT=   32 Incr=        1024 LDynOK=F.
 CoulSu:  NPrtUS=  32 ThrOK=T IAlg=1 NPAlg=1 LenDen=           0 LWGrdD=           0 DoCopy=F.
 Enter PrismC: JobTyp=21 DoJE=F Cont=F.
 Enter PrismC: JobTyp=21 DoJE=F Cont=F.
 PrismC:  IPart=     0 DynPar=T LinDyn=F Incr=        1024 UseFst=F UseS4=T IGathr=2.
 PrismC was handed    13045544 working-precision words and  3366 shell-pairs
 Enter PrismC: JobTyp=21 DoJE=F Cont=F.
 Enter PrismC: JobTyp=21 DoJE=F Cont=F.
 Enter PrismC: JobTyp=21 DoJE=F Cont=F.
 Enter PrismC: JobTyp=21 DoJE=F Cont=F.
 Enter PrismC: JobTyp=21 DoJE=F Cont=F.
 Enter PrismC: JobTyp=21 DoJE=F Cont=F.
 Enter PrismC: JobTyp=21 DoJE=F Cont=F.
 Enter PrismC: JobTyp=21 DoJE=F Cont=F.
 Enter PrismC: JobTyp=21 DoJE=F Cont=F.
 Enter PrismC: JobTyp=21 DoJE=F Cont=F.
 Enter PrismC: JobTyp=21 DoJE=F Cont=F.
 Enter PrismC: JobTyp=21 DoJE=F Cont=F.
 Enter PrismC: JobTyp=21 DoJE=F Cont=F.
 PrismC was handed    13045544 working-precision words and  3366 shell-pairs
 Enter PrismC: JobTyp=21 DoJE=F Cont=F.
 PrismC was handed    13045544 working-precision words and  3366 shell-pairs
 Enter PrismC: JobTyp=21 DoJE=F Cont=F.
 PrismC was handed    13045544 working-precision words and  3366 shell-pairs
 Enter PrismC: JobTyp=21 DoJE=F Cont=F.
 PrismC was handed    13045544 working-precision words and  3366 shell-pairs
 Enter PrismC: JobTyp=21 DoJE=F Cont=F.
 PrismC was handed    13045544 working-precision words and  3366 shell-pairs
 Enter PrismC: JobTyp=21 DoJE=F Cont=F.
 PrismC was handed    13045544 working-precision words and  3366 shell-pairs
 Enter PrismC: JobTyp=21 DoJE=F Cont=F.
 PrismC was handed    13045544 working-precision words and  3366 shell-pairs
 Enter PrismC: JobTyp=21 DoJE=F Cont=F.
 PrismC was handed    13045544 working-precision words and  3366 shell-pairs
 Enter PrismC: JobTyp=21 DoJE=F Cont=F.
 PrismC was handed    13045544 working-precision words and  3366 shell-pairs
 Enter PrismC: JobTyp=21 DoJE=F Cont=F.
 PrismC was handed    13045544 working-precision words and  3366 shell-pairs
 Enter PrismC: JobTyp=21 DoJE=F Cont=F.
 PrismC was handed    13045544 working-precision words and  3366 shell-pairs
 Enter PrismC: JobTyp=21 DoJE=F Cont=F.
 PrismC was handed    13045544 working-precision words and  3366 shell-pairs
 Enter PrismC: JobTyp=21 DoJE=F Cont=F.
 PrismC was handed    13045544 working-precision words and  3366 shell-pairs
 Enter PrismC: JobTyp=21 DoJE=F Cont=F.
 PrismC was handed    13045544 working-precision words and  3366 shell-pairs
 Enter PrismC: JobTyp=21 DoJE=F Cont=F.
 PrismC was handed    13045544 working-precision words and  3366 shell-pairs
 Enter PrismC: JobTyp=21 DoJE=F Cont=F.
 Enter PrismC: JobTyp=21 DoJE=F Cont=F.
 PrismC was handed    13045544 working-precision words and  3366 shell-pairs
 Enter PrismC: JobTyp=21 DoJE=F Cont=F.
 PrismC was handed    13045544 working-precision words and  3366 shell-pairs
 PrismC was handed    13045544 working-precision words and  3366 shell-pairs
 PrismC was handed    13045544 working-precision words and  3366 shell-pairs
 PrismC was handed    13045544 working-precision words and  3366 shell-pairs
 PrismC was handed    13045544 working-precision words and  3366 shell-pairs
 PrismC was handed    13045544 working-precision words and  3366 shell-pairs
 PrismC was handed    13045544 working-precision words and  3366 shell-pairs
 PrismC was handed    13045544 working-precision words and  3366 shell-pairs
 PrismC was handed    13045544 working-precision words and  3366 shell-pairs
 PrismC was handed    13045544 working-precision words and  3366 shell-pairs
 PrismC was handed    13045544 working-precision words and  3366 shell-pairs
 PrismC was handed    13045544 working-precision words and  3366 shell-pairs
 PrismC was handed    13045544 working-precision words and  3366 shell-pairs
 PrismC was handed    13045544 working-precision words and  3366 shell-pairs
 PrismC was handed    13045544 working-precision words and  3366 shell-pairs
 IPart=  9 NShTot=      166371 NShNF=      166371 NShFF=           0 NBatch=        1339 AvBLen=       124.3
 IPart= 12 NShTot=      160376 NShNF=      160376 NShFF=           0 NBatch=        1410 AvBLen=       113.7
 IPart= 15 NShTot=      151393 NShNF=      151393 NShFF=           0 NBatch=        1413 AvBLen=       107.1
 IPart= 27 NShTot=      152880 NShNF=      152880 NShFF=           0 NBatch=        1299 AvBLen=       117.7
 IPart= 13 NShTot=      150354 NShNF=      150354 NShFF=           0 NBatch=        1393 AvBLen=       107.9
 IPart=  2 NShTot=      157303 NShNF=      157303 NShFF=           0 NBatch=        1265 AvBLen=       124.4
 IPart=  7 NShTot=      149507 NShNF=      149507 NShFF=           0 NBatch=        1400 AvBLen=       106.8
 IPart= 21 NShTot=      155665 NShNF=      155665 NShFF=           0 NBatch=        1395 AvBLen=       111.6
 IPart=  4 NShTot=      153649 NShNF=      153649 NShFF=           0 NBatch=        1119 AvBLen=       137.3
 IPart= 11 NShTot=      170778 NShNF=      170778 NShFF=           0 NBatch=        1411 AvBLen=       121.0
 IPart= 25 NShTot=      144742 NShNF=      144742 NShFF=           0 NBatch=        1347 AvBLen=       107.5
 IPart= 10 NShTot=      177079 NShNF=      177079 NShFF=           0 NBatch=        1397 AvBLen=       126.8
 IPart= 26 NShTot=      154070 NShNF=      154070 NShFF=           0 NBatch=        1366 AvBLen=       112.8
 IPart= 31 NShTot=      153940 NShNF=      153940 NShFF=           0 NBatch=        1394 AvBLen=       110.4
 IPart= 30 NShTot=      164802 NShNF=      164802 NShFF=           0 NBatch=        1366 AvBLen=       120.6
 IPart= 14 NShTot=      146361 NShNF=      146361 NShFF=           0 NBatch=        1240 AvBLen=       118.0
 IPart= 24 NShTot=      151093 NShNF=      151093 NShFF=           0 NBatch=        1379 AvBLen=       109.6
 IPart= 19 NShTot=      148132 NShNF=      148132 NShFF=           0 NBatch=        1367 AvBLen=       108.4
 IPart= 16 NShTot=      165137 NShNF=      165137 NShFF=           0 NBatch=        1369 AvBLen=       120.6
 IPart=  8 NShTot=      155909 NShNF=      155909 NShFF=           0 NBatch=        1370 AvBLen=       113.8
 IPart= 18 NShTot=      165018 NShNF=      165018 NShFF=           0 NBatch=        1418 AvBLen=       116.4
 IPart=  5 NShTot=      158056 NShNF=      158056 NShFF=           0 NBatch=        1389 AvBLen=       113.8
 IPart=  6 NShTot=      161022 NShNF=      161022 NShFF=           0 NBatch=        1384 AvBLen=       116.3
 IPart= 28 NShTot=      154707 NShNF=      154707 NShFF=           0 NBatch=        1367 AvBLen=       113.2
 IPart=  3 NShTot=      142165 NShNF=      142165 NShFF=           0 NBatch=        1366 AvBLen=       104.1
 IPart= 29 NShTot=      149882 NShNF=      149882 NShFF=           0 NBatch=        1320 AvBLen=       113.5
 IPart= 17 NShTot=      160482 NShNF=      160482 NShFF=           0 NBatch=        1397 AvBLen=       114.9
 IPart= 22 NShTot=      152638 NShNF=      152638 NShFF=           0 NBatch=        1213 AvBLen=       125.8
 IPart=  0 NShTot=      148150 NShNF=      148150 NShFF=           0 NBatch=        1049 AvBLen=       141.2
 IPart= 23 NShTot=      149893 NShNF=      149893 NShFF=           0 NBatch=        1104 AvBLen=       135.8
 IPart=  1 NShTot=      154717 NShNF=      154717 NShFF=           0 NBatch=        1188 AvBLen=       130.2
 IPart= 20 NShTot=      156947 NShNF=      156947 NShFF=           0 NBatch=        1399 AvBLen=       112.2
 CoulSu:  NxtVal=        6234113.
 FoFCou: FMM=F IPFlag=           0 FMFlag=      100000 FMFlg1=         800
         NFxFlg=           0 DoJE=F BraDBF=F KetDBF=F FulRan=T
         wScrn=  0.000000 ICntrl=    2127 IOpCl=  1 I1Cent=           0 NGrid=           0
         NMat0=    1 NMatS0=      0 NMatT0=    1 NMatD0=    1 NMtDS0=    0 NMtDT0=    0
         CW=    0.222036    0.777964
         WU=    0.000000   12.500000
 Symmetry not used in FoFCou.
 FoFCou:  KetSym=F NOpSet=  1 NOpAb=1 NOp=  1.
 FoFCou:  CnvScl= 1.00D+00 Thresh= 1.00D-10 IAcrcy=      10.
 PrismS was handed   419079054 working-precision words and  3366 shell-pairs
 FoFCou: LinMIO=F DoNuc=F BraDBF=F KetDBF=F HaveP=T PDBF=F HaveZ=T HaveW=F
         NIJTC =      10 NIJTAt=       0 NIJTCD=       0 NIJTT =      10
         IJTBeg=       1 IJTEnd=      10 KLTBeg=       1 KLTEnd=      10
         IPTBeg=       1 IPTEnd=      10 IPTBCv=       1 IPTECv=      10
         IZTBeg=       1 IZTEnd=      10 IZTBCv=       1 IZTECv=      10
         IWTBeg=      11 IWTEnd=      10 IWTBCv=      11 IWTECv=      10
         INTBeg=       1 INTEnd=       0 IFTBCv=       1 IFTECv=      10
 NCel replicated for PrismC:     1
 CoulSu:  IncDef=  1024 NBBP=        5666661 NTPThr=   100 NPartT=   32 Incr=        1024 LDynOK=F.
 CoulSu:  NPrtUS=  32 ThrOK=T IAlg=1 NPAlg=1 LenDen=           0 LWGrdD=           0 DoCopy=F.
 Enter PrismC: JobTyp=21 DoJE=F Cont=F.
 Linear combination for Coulomb/exchange, wScrn=  0.000000
 CW=    0.222036    0.777964
 WU=    0.000000   12.500000
 PrismC:  IPart=     0 DynPar=T LinDyn=F Incr=        1024 UseFst=F UseS4=T IGathr=2.
 PrismC was handed    13045439 working-precision words and  3366 shell-pairs
 Enter PrismC: JobTyp=21 DoJE=F Cont=F.
 Enter PrismC: JobTyp=21 DoJE=F Cont=F.
 Linear combination for Coulomb/exchange, wScrn=  0.000000
 CW=    0.222036    0.777964
 WU=    0.000000   12.500000
 Enter PrismC: JobTyp=21 DoJE=F Cont=F.
 Enter PrismC: JobTyp=21 DoJE=F Cont=F.
 Linear combination for Coulomb/exchange, wScrn=  0.000000
 CW=    0.222036    0.777964
 WU=    0.000000   12.500000
 Enter PrismC: JobTyp=21 DoJE=F Cont=F.
 Linear combination for Coulomb/exchange, wScrn=  0.000000
 CW=    0.222036    0.777964
 WU=    0.000000   12.500000
 Enter PrismC: JobTyp=21 DoJE=F Cont=F.
 Linear combination for Coulomb/exchange, wScrn=  0.000000
 CW=    0.222036    0.777964
 WU=    0.000000   12.500000
 Enter PrismC: JobTyp=21 DoJE=F Cont=F.
 Linear combination for Coulomb/exchange, wScrn=  0.000000
 CW=    0.222036    0.777964
 WU=    0.000000   12.500000
 Enter PrismC: JobTyp=21 DoJE=F Cont=F.
 Linear combination for Coulomb/exchange, wScrn=  0.000000
 CW=    0.222036    0.777964
 WU=    0.000000   12.500000
 Enter PrismC: JobTyp=21 DoJE=F Cont=F.
 Linear combination for Coulomb/exchange, wScrn=  0.000000
 CW=    0.222036    0.777964
 WU=    0.000000   12.500000
 Enter PrismC: JobTyp=21 DoJE=F Cont=F.
 Linear combination for Coulomb/exchange, wScrn=  0.000000
 CW=    0.222036    0.777964
 WU=    0.000000   12.500000
 Enter PrismC: JobTyp=21 DoJE=F Cont=F.
 Linear combination for Coulomb/exchange, wScrn=  0.000000
 CW=    0.222036    0.777964
 WU=    0.000000   12.500000
 Enter PrismC: JobTyp=21 DoJE=F Cont=F.
 Linear combination for Coulomb/exchange, wScrn=  0.000000
 CW=    0.222036    0.777964
 WU=    0.000000   12.500000
 Enter PrismC: JobTyp=21 DoJE=F Cont=F.
 Linear combination for Coulomb/exchange, wScrn=  0.000000
 CW=    0.222036    0.777964
 WU=    0.000000   12.500000
 Enter PrismC: JobTyp=21 DoJE=F Cont=F.
 Linear combination for Coulomb/exchange, wScrn=  0.000000
 CW=    0.222036    0.777964
 WU=    0.000000   12.500000
 Enter PrismC: JobTyp=21 DoJE=F Cont=F.
 Linear combination for Coulomb/exchange, wScrn=  0.000000
 CW=    0.222036    0.777964
 PrismC was handed    13045439 working-precision words and  3366 shell-pairs
 Enter PrismC: JobTyp=21 DoJE=F Cont=F.
 Linear combination for Coulomb/exchange, wScrn=  0.000000
 CW=    0.222036    0.777964
 WU=    0.000000   12.500000
 Enter PrismC: JobTyp=21 DoJE=F Cont=F.
 Linear combination for Coulomb/exchange, wScrn=  0.000000
 CW=    0.222036    0.777964
 WU=    0.000000   12.500000
 Enter PrismC: JobTyp=21 DoJE=F Cont=F.
 Linear combination for Coulomb/exchange, wScrn=  0.000000
 CW=    0.222036    0.777964
 WU=    0.000000   12.500000
 Linear combination for Coulomb/exchange, wScrn=  0.000000
 CW=    0.222036    0.777964
 WU=    0.000000   12.500000
 PrismC was handed    13045439 working-precision words and  3366 shell-pairs
 Enter PrismC: JobTyp=21 DoJE=F Cont=F.
 Linear combination for Coulomb/exchange, wScrn=  0.000000
 CW=    0.222036    0.777964
 WU=    0.000000   12.500000
 PrismC was handed    13045439 working-precision words and  3366 shell-pairs
 Linear combination for Coulomb/exchange, wScrn=  0.000000
 CW=    0.222036    0.777964
 WU=    0.000000   12.500000
 PrismC was handed    13045439 working-precision words and  3366 shell-pairs
 Enter PrismC: JobTyp=21 DoJE=F Cont=F.
 Linear combination for Coulomb/exchange, wScrn=  0.000000
 CW=    0.222036    0.777964
 WU=    0.000000   12.500000
 Enter PrismC: JobTyp=21 DoJE=F Cont=F.
 Linear combination for Coulomb/exchange, wScrn=  0.000000
 CW=    0.222036    0.777964
 WU=    0.000000   12.500000
 PrismC was handed    13045439 working-precision words and  3366 shell-pairs
 Enter PrismC: JobTyp=21 DoJE=F Cont=F.
 Linear combination for Coulomb/exchange, wScrn=  0.000000
 CW=    0.222036    0.777964
 WU=    0.000000   12.500000
 Enter PrismC: JobTyp=21 DoJE=F Cont=F.
 Linear combination for Coulomb/exchange, wScrn=  0.000000
 CW=    0.222036    0.777964
 WU=    0.000000   12.500000
 Enter PrismC: JobTyp=21 DoJE=F Cont=F.
 Linear combination for Coulomb/exchange, wScrn=  0.000000
 CW=    0.222036    0.777964
 WU=    0.000000   12.500000
 PrismC was handed    13045439 working-precision words and  3366 shell-pairs
 Enter PrismC: JobTyp=21 DoJE=F Cont=F.
 Linear combination for Coulomb/exchange, wScrn=  0.000000
 CW=    0.222036    0.777964
 WU=    0.000000   12.500000
 PrismC was handed    13045439 working-precision words and  3366 shell-pairs
 PrismC was handed    13045439 working-precision words and  3366 shell-pairs
 Enter PrismC: JobTyp=21 DoJE=F Cont=F.
 Linear combination for Coulomb/exchange, wScrn=  0.000000
 CW=    0.222036    0.777964
 WU=    0.000000   12.500000
 PrismC was handed    13045439 working-precision words and  3366 shell-pairs
 Enter PrismC: JobTyp=21 DoJE=F Cont=F.
 Linear combination for Coulomb/exchange, wScrn=  0.000000
 CW=    0.222036    0.777964
 WU=    0.000000   12.500000
 PrismC was handed    13045439 working-precision words and  3366 shell-pairs
 PrismC was handed    13045439 working-precision words and  3366 shell-pairs
 PrismC was handed    13045439 working-precision words and  3366 shell-pairs
 PrismC was handed    13045439 working-precision words and  3366 shell-pairs
 PrismC was handed    13045439 working-precision words and  3366 shell-pairs
 PrismC was handed    13045439 working-precision words and  3366 shell-pairs
 PrismC was handed    13045439 working-precision words and  3366 shell-pairs
 PrismC was handed    13045439 working-precision words and  3366 shell-pairs
 Enter PrismC: JobTyp=21 DoJE=F Cont=F.
 Linear combination for Coulomb/exchange, wScrn=  0.000000
 CW=    0.222036    0.777964
 WU=    0.000000   12.500000
 PrismC was handed    13045439 working-precision words and  3366 shell-pairs
 PrismC was handed    13045439 working-precision words and  3366 shell-pairs
 WU=    0.000000   12.500000
 PrismC was handed    13045439 working-precision words and  3366 shell-pairs
 Enter PrismC: JobTyp=21 DoJE=F Cont=F.
 Linear combination for Coulomb/exchange, wScrn=  0.000000
 CW=    0.222036    0.777964
 WU=    0.000000   12.500000
 Enter PrismC: JobTyp=21 DoJE=F Cont=F.
 Linear combination for Coulomb/exchange, wScrn=  0.000000
 CW=    0.222036    0.777964
 WU=    0.000000   12.500000
 PrismC was handed    13045439 working-precision words and  3366 shell-pairs
 Enter PrismC: JobTyp=21 DoJE=F Cont=F.
 PrismC was handed    13045439 working-precision words and  3366 shell-pairs
 PrismC was handed    13045439 working-precision words and  3366 shell-pairs
 PrismC was handed    13045439 working-precision words and  3366 shell-pairs
 PrismC was handed    13045439 working-precision words and  3366 shell-pairs
 PrismC was handed    13045439 working-precision words and  3366 shell-pairs
 PrismC was handed    13045439 working-precision words and  3366 shell-pairs
 PrismC was handed    13045439 working-precision words and  3366 shell-pairs
 PrismC was handed    13045439 working-precision words and  3366 shell-pairs
 PrismC was handed    13045439 working-precision words and  3366 shell-pairs
 Linear combination for Coulomb/exchange, wScrn=  0.000000
 CW=    0.222036    0.777964
 WU=    0.000000   12.500000
 PrismC was handed    13045439 working-precision words and  3366 shell-pairs
 IPart= 27 NShTot=      149082 NShNF=      149082 NShFF=           0 NBatch=        1633 AvBLen=        91.3
 IPart=  1 NShTot=      146073 NShNF=      146073 NShFF=           0 NBatch=        1618 AvBLen=        90.3
 IPart= 16 NShTot=      151015 NShNF=      151015 NShFF=           0 NBatch=        1491 AvBLen=       101.3
 IPart= 25 NShTot=      152020 NShNF=      152020 NShFF=           0 NBatch=        1663 AvBLen=        91.4
 IPart= 21 NShTot=      160445 NShNF=      160445 NShFF=           0 NBatch=        1710 AvBLen=        93.8
 IPart= 31 NShTot=      150620 NShNF=      150620 NShFF=           0 NBatch=        1517 AvBLen=        99.3
 IPart= 12 NShTot=      156195 NShNF=      156195 NShFF=           0 NBatch=        1634 AvBLen=        95.6
 IPart= 11 NShTot=      156465 NShNF=      156465 NShFF=           0 NBatch=        1736 AvBLen=        90.1
 IPart= 15 NShTot=      166909 NShNF=      166909 NShFF=           0 NBatch=        1716 AvBLen=        97.3
 IPart= 29 NShTot=      171877 NShNF=      171877 NShFF=           0 NBatch=        1701 AvBLen=       101.0
 IPart= 17 NShTot=      170170 NShNF=      170170 NShFF=           0 NBatch=        1770 AvBLen=        96.1
 IPart= 20 NShTot=      169804 NShNF=      169804 NShFF=           0 NBatch=        1759 AvBLen=        96.5
 IPart=  2 NShTot=      163231 NShNF=      163231 NShFF=           0 NBatch=        1626 AvBLen=       100.4
 IPart=  6 NShTot=      158576 NShNF=      158576 NShFF=           0 NBatch=        1726 AvBLen=        91.9
 IPart= 24 NShTot=      152181 NShNF=      152181 NShFF=           0 NBatch=        1638 AvBLen=        92.9
 IPart=  8 NShTot=      164321 NShNF=      164321 NShFF=           0 NBatch=        1682 AvBLen=        97.7
 IPart=  0 NShTot=      157047 NShNF=      157047 NShFF=           0 NBatch=        1417 AvBLen=       110.8
 IPart= 28 NShTot=      168376 NShNF=      168376 NShFF=           0 NBatch=        1651 AvBLen=       102.0
 IPart= 13 NShTot=      160159 NShNF=      160159 NShFF=           0 NBatch=        1725 AvBLen=        92.8
 IPart=  5 NShTot=      175881 NShNF=      175881 NShFF=           0 NBatch=        1814 AvBLen=        97.0
 IPart= 22 NShTot=      162084 NShNF=      162084 NShFF=           0 NBatch=        1684 AvBLen=        96.2
 IPart=  7 NShTot=      164195 NShNF=      164195 NShFF=           0 NBatch=        1696 AvBLen=        96.8
 IPart= 18 NShTot=      143346 NShNF=      143346 NShFF=           0 NBatch=        1608 AvBLen=        89.1
 IPart= 10 NShTot=      139531 NShNF=      139531 NShFF=           0 NBatch=        1567 AvBLen=        89.0
 IPart= 26 NShTot=      148761 NShNF=      148761 NShFF=           0 NBatch=        1527 AvBLen=        97.4
 IPart= 14 NShTot=      142130 NShNF=      142130 NShFF=           0 NBatch=        1624 AvBLen=        87.5
 IPart= 19 NShTot=      158084 NShNF=      158084 NShFF=           0 NBatch=        1657 AvBLen=        95.4
 IPart=  3 NShTot=      133917 NShNF=      133917 NShFF=           0 NBatch=        1659 AvBLen=        80.7
 IPart= 30 NShTot=      164576 NShNF=      164576 NShFF=           0 NBatch=        1658 AvBLen=        99.3
 IPart=  9 NShTot=      160311 NShNF=      160311 NShFF=           0 NBatch=        1722 AvBLen=        93.1
 IPart= 23 NShTot=      156203 NShNF=      156203 NShFF=           0 NBatch=        1661 AvBLen=        94.0
 IPart=  4 NShTot=      153773 NShNF=      153773 NShFF=           0 NBatch=        1619 AvBLen=        95.0
 CoulSu:  NxtVal=        6234113.
 ReadGW:  IGet=0 IStart=           1 Next=           1 LGW=           0.
 Remaining memory in FofDFT      399.87 Mw
 CkSvGd:  ISavGI=        -1 IRadAn=       5 IRASav=       5 ISavGd=        -1.
 CalDSu:  NPrtUS=  32 ThrOK=T IAlg=1 NPAlg=2 DoDPD=T LenP=       33930 LenD1P=             0.
 IPart=  0 IRanGd=          0 ScrnBf=T ScrnGd=T RCrit=4.00D+00 DoMicB=T.
 IPart=  0         5461 of         5880 points in       6 batches and       13 microbatches, Max-NSigAt=       8 Max-NSgAt2=       8
 IPart= 10         5702 of         6458 points in       8 batches and       25 microbatches, Max-NSigAt=       8 Max-NSgAt2=       8
 IPart= 21         5336 of         5894 points in       7 batches and       43 microbatches, Max-NSigAt=       8 Max-NSgAt2=       8
 IPart= 29         5298 of         5694 points in       6 batches and       29 microbatches, Max-NSigAt=       8 Max-NSgAt2=       8
 IPart=  8         5967 of         6954 points in       9 batches and       33 microbatches, Max-NSigAt=       8 Max-NSgAt2=       8
 IPart=  7         4382 of         4748 points in       5 batches and       32 microbatches, Max-NSigAt=       8 Max-NSgAt2=       8
 IPart=  6         5987 of         6998 points in       9 batches and       27 microbatches, Max-NSigAt=       8 Max-NSgAt2=       8
 IPart= 23         5759 of         6566 points in       9 batches and       35 microbatches, Max-NSigAt=       8 Max-NSgAt2=       8
 IPart= 15         4802 of         5566 points in       8 batches and       53 microbatches, Max-NSigAt=       8 Max-NSgAt2=       8
 IPart=  5         5280 of         5722 points in       6 batches and       39 microbatches, Max-NSigAt=       8 Max-NSgAt2=       8
 IPart=  4         4674 of         4744 points in       4 batches and       12 microbatches, Max-NSigAt=       8 Max-NSgAt2=       8
 IPart= 13         4884 of         5552 points in       7 batches and       47 microbatches, Max-NSigAt=       8 Max-NSgAt2=       8
 IPart= 25         4740 of         5352 points in       6 batches and       32 microbatches, Max-NSigAt=       8 Max-NSgAt2=       8
 IPart= 20         4213 of         4748 points in       5 batches and       35 microbatches, Max-NSigAt=       8 Max-NSgAt2=       8
 IPart= 22         4701 of         4776 points in       4 batches and       14 microbatches, Max-NSigAt=       8 Max-NSgAt2=       8
 IPart= 12         4914 of         5420 points in       6 batches and       29 microbatches, Max-NSigAt=       8 Max-NSgAt2=       8
 IPart= 14         5527 of         6024 points in       7 batches and       29 microbatches, Max-NSigAt=       8 Max-NSgAt2=       8
 IPart= 30         4450 of         4720 points in       4 batches and       17 microbatches, Max-NSigAt=       8 Max-NSgAt2=       8
 IPart=  9         4874 of         5338 points in       6 batches and       24 microbatches, Max-NSigAt=       8 Max-NSgAt2=       8
 IPart=  3         5185 of         5722 points in       6 batches and       29 microbatches, Max-NSigAt=       8 Max-NSgAt2=       8
 IPart= 26         5746 of         6526 points in       8 batches and       52 microbatches, Max-NSigAt=       8 Max-NSgAt2=       8
 IPart= 11         5109 of         5352 points in       5 batches and       27 microbatches, Max-NSigAt=       8 Max-NSgAt2=       8
 IPart=  2         5427 of         5706 points in       6 batches and       37 microbatches, Max-NSigAt=       8 Max-NSgAt2=       8
 IPart= 19         5797 of         6350 points in       7 batches and       47 microbatches, Max-NSigAt=       8 Max-NSgAt2=       8
 IPart=  1         6615 of         7706 points in       9 batches and       27 microbatches, Max-NSigAt=       8 Max-NSgAt2=       8
 IPart= 31         5023 of         5336 points in       6 batches and       34 microbatches, Max-NSigAt=       8 Max-NSgAt2=       8
 IPart= 18         5083 of         5324 points in       5 batches and       29 microbatches, Max-NSigAt=       8 Max-NSgAt2=       8
 IPart= 17         4935 of         5324 points in       5 batches and       30 microbatches, Max-NSigAt=       8 Max-NSgAt2=       8
 IPart= 27         6171 of         6994 points in       9 batches and       65 microbatches, Max-NSigAt=       8 Max-NSgAt2=       8
 IPart= 16         5995 of         6498 points in       7 batches and       28 microbatches, Max-NSigAt=       8 Max-NSgAt2=       8
 IPart= 28         5295 of         5696 points in       6 batches and       35 microbatches, Max-NSigAt=       8 Max-NSgAt2=       8
 IPart= 24         5338 of         5524 points in       5 batches and       19 microbatches, Max-NSigAt=       8 Max-NSgAt2=       8
 Forces at end of L703
 I=    0 X=   2.635747005497D-05 Y=  -1.380647090254D-05 Z=   4.246761023285D-06
 I=    1 X=  -4.809228573734D-03 Y=  -1.011697320154D-02 Z=  -3.083733905611D-03
 I=    2 X=   4.126229019874D-03 Y=   8.692342724473D-03 Z=  -4.983312896814D-04
 I=    3 X=   1.187665224765D-03 Y=   8.714592249668D-03 Z=   3.953922438449D-03
 I=    4 X=   6.005508096310D-03 Y=   6.428250560539D-03 Z=   3.953519329742D-03
 I=    5 X=   4.712278969549D-03 Y=   1.012026394685D-02 Z=   3.219602440236D-03
 I=    6 X=  -1.141155830306D-03 Y=  -8.697038269487D-03 Z=  -3.990251708575D-03
 I=    7 X=  -5.976556751840D-03 Y=  -6.428644653151D-03 Z=  -3.996628161406D-03
 I=    8 X=  -4.104740154627D-03 Y=  -8.712793357365D-03 Z=   4.419008568695D-04
 FrcOut:
 IF    =    45 IFX   =    69 IFXYZ =    93
 IFFX  =   117 IFFFX =   417 IFLen =    24
 IFFLen=   300 IFFFLn=     0 IEDerv=   417
 LEDerv=  1205 IFroze=  1904 ICStrt=108261
 FCEst1:  Generated internal coordinate force constants:
                1             2             3             4             5 
      1  0.587676D+00
      2 -0.127948D+00  0.378842D+00
      3 -0.403779D-01 -0.850614D-01  0.621887D+00
      4 -0.845275D-01  0.946029D-02 -0.758834D-02  0.623740D-01
      5  0.946025D-02 -0.690818D-01 -0.159883D-01 -0.428067D-02  0.553822D-01
      6  0.000000D+00  0.000000D+00 -0.355866D+00  0.000000D+00  0.000000D+00
      7 -0.317714D+00  0.366400D-02  0.980425D-01  0.149075D-01  0.131676D-03
      8 -0.110731D-01 -0.690480D-01  0.149105D-01  0.339734D-03  0.987568D-03
      9  0.904628D-01  0.871487D-02 -0.122552D+00  0.354577D-01  0.313193D-03
     10 -0.164820D+00  0.113696D+00 -0.504346D-01  0.632088D-02 -0.666737D-02
     11  0.128432D+00 -0.221942D+00  0.853894D-01 -0.687547D-02  0.957423D-02
     12 -0.504421D-01  0.755994D-01 -0.122551D+00 -0.221752D-01  0.276695D-01
     13 -0.256740D-01  0.331239D-02  0.104879D-02  0.925008D-03  0.135613D-02
     14  0.330898D-02 -0.202630D-01  0.219976D-02  0.135618D-02  0.313782D-02
     15  0.104663D-02  0.219748D-02 -0.265554D-01 -0.569429D-02 -0.119943D-01
     16 -0.189563D-02  0.526304D-03  0.118503D-02 -0.187469D-03  0.889986D-04
     17 -0.105333D-01  0.314177D-02  0.589551D-02  0.229746D-03 -0.109069D-03
     18 -0.450684D-02  0.125116D-02  0.281778D-02 -0.446413D-03  0.211929D-03
     19  0.602743D-02 -0.406566D-02  0.381947D-02 -0.296569D-03  0.140792D-03
     20  0.699185D-02 -0.478445D-02  0.464712D-02  0.000000D+00  0.000000D+00
     21  0.381767D-02 -0.270092D-02  0.281819D-02  0.446299D-03 -0.211874D-03
     22  0.927760D-03  0.135508D-02 -0.569492D-02  0.484074D-03 -0.229807D-03
     23  0.136114D-02  0.313491D-02 -0.119927D-01 -0.229885D-03  0.109135D-03
     24  0.000000D+00  0.000000D+00  0.223245D-05  0.000000D+00  0.000000D+00
                6             7             8             9            10 
      6  0.355866D+00
      7  0.000000D+00  0.311679D+00
      8  0.000000D+00 -0.166030D-02  0.553636D-01
      9  0.000000D+00 -0.104817D+00 -0.394904D-02  0.106439D+00
     10  0.000000D+00 -0.697772D-02  0.229239D-01 -0.165966D-01  0.159449D+00
     11  0.000000D+00 -0.266113D-02  0.955754D-02 -0.632953D-02 -0.125886D+00
     12  0.000000D+00  0.558915D-02 -0.168602D-01  0.132939D-01  0.632106D-01
     13  0.000000D+00 -0.189477D-02 -0.105302D-01 -0.450673D-02  0.602762D-02
     14  0.000000D+00  0.525728D-03  0.313932D-02  0.125045D-02 -0.406612D-02
     15  0.000000D+00  0.118556D-02  0.589867D-02  0.281987D-02  0.382064D-02
     16  0.000000D+00  0.726566D-04 -0.889783D-04  0.172814D-03  0.114864D-03
     17  0.000000D+00 -0.890413D-04  0.109044D-03 -0.211786D-03 -0.140767D-03
     18  0.000000D+00  0.173014D-03 -0.211881D-03  0.411516D-03  0.273522D-03
     19  0.000000D+00  0.114940D-03 -0.140760D-03  0.273386D-03  0.181711D-03
     20  0.000000D+00  0.000000D+00  0.000000D+00  0.000000D+00  0.000000D+00
     21  0.000000D+00 -0.172970D-03  0.211826D-03 -0.411411D-03 -0.273452D-03
     22  0.000000D+00 -0.187610D-03  0.229755D-03 -0.446233D-03 -0.296596D-03
     23  0.000000D+00  0.890955D-04 -0.109110D-03  0.211915D-03  0.140853D-03
     24  0.000000D+00  0.000000D+00  0.000000D+00  0.000000D+00  0.000000D+00
               11            12            13            14            15 
     11  0.207594D+00
     12 -0.837075D-01  0.106438D+00
     13  0.699046D-02  0.381758D-02  0.587894D+00
     14 -0.478394D-02 -0.270115D-02 -0.128000D+00  0.378802D+00
     15  0.464760D-02  0.281905D-02 -0.404532D-01 -0.849340D-01  0.621708D+00
     16  0.000000D+00 -0.172814D-03 -0.317879D+00  0.371835D-02  0.980209D-01
     17  0.000000D+00  0.211785D-03 -0.110259D-01 -0.690703D-01  0.148842D-01
     18  0.000000D+00 -0.411515D-03  0.904388D-01  0.869254D-02 -0.122528D+00
     19  0.000000D+00 -0.273385D-03 -0.164880D+00  0.113707D+00 -0.504364D-01
     20  0.000000D+00  0.000000D+00  0.128440D+00 -0.221909D+00  0.853842D-01
     21  0.000000D+00  0.411410D-03 -0.504352D-01  0.755893D-01 -0.122520D+00
     22  0.000000D+00  0.446231D-03 -0.845190D-01  0.944918D-02 -0.748987D-02
     23  0.000000D+00 -0.211914D-03  0.945699D-02 -0.690528D-01 -0.160839D-01
     24  0.000000D+00  0.000000D+00  0.899265D-04 -0.969173D-04 -0.355744D+00
               16            17            18            19            20 
     16  0.311846D+00
     17 -0.171580D-02  0.553771D-01
     18 -0.104793D+00 -0.391770D-02  0.106400D+00
     19 -0.696823D-02  0.229242D-01 -0.166012D-01  0.159499D+00
     20 -0.265916D-02  0.956368D-02 -0.633566D-02 -0.125899D+00  0.207562D+00
     21  0.558228D-02 -0.168618D-01  0.132984D-01  0.632136D-01 -0.836900D-01
     22  0.148966D-01  0.350835D-03  0.354624D-01  0.632224D-02 -0.687361D-02
     23  0.130333D-03  0.987732D-03  0.309720D-03 -0.666698D-02  0.956859D-02
     24  0.507494D-05  0.000000D+00  0.120814D-04  0.450248D-05 -0.570577D-05
               21            22            23            24 
     21  0.106420D+00
     22 -0.221782D-01  0.623725D-01
     23  0.276634D-01 -0.428154D-02  0.553616D-01
     24 -0.172884D-04 -0.993472D-04  0.103477D-03  0.355747D+00
 Quadrupole    =-1.38263477D-01 3.56540179D-01-2.18276702D-01
                 3.03225658D-01 9.50318651D-02 2.01307337D-01
 -------------------------------------------------------------------
 Center     Atomic                   Forces (Hartrees/Bohr)
 Number     Number              X              Y              Z
 -------------------------------------------------------------------
      1        6           0.004809229    0.010116973    0.003083734
      2        1          -0.004126229   -0.008692343    0.000498331
      3        1          -0.001187665   -0.008714592   -0.003953922
      4        1          -0.006005508   -0.006428251   -0.003953519
      5        6          -0.004712279   -0.010120264   -0.003219602
      6        1           0.001141156    0.008697038    0.003990252
      7        1           0.005976557    0.006428645    0.003996628
      8        1           0.004104740    0.008712793   -0.000441901
 -------------------------------------------------------------------
 Cartesian Forces:  Max     0.010120264 RMS     0.005872463
 From PutF, contents of force:
   1    0.4983312897D-03
   2    0.4375853729D-03
   3    0.4413328954D-03
   4    0.8405447875D-02
   5    0.8401335679D-02
   6   -0.1645338433D-01
   7    0.4951306499D-03
   8    0.4419001891D-03
   9    0.4402676694D-03
  10    0.8417234119D-02
  11    0.8402676513D-02
  12    0.1644599467D-01
  13    0.2668656943D-05
  14   -0.7547188717D-06
  15   -0.5255203308D-05
  16    0.6878058766D-05
  17   -0.3557550488D-05
  18   -0.1578862216D-01
 -----------------------------------------------------------------------------------------------
                       Internal Coordinate Forces (Hartree/Bohr or radian)
  Cent   Atom   N1       Length/X         N2         Alpha/Y        N3         Beta/Z          J
 -----------------------------------------------------------------------------------------------
      1  C 
      2  H        1   0.000498(     1)
      3  H        1   0.000438(     2)      2   0.008405(     8)
      4  H        1   0.000441(     3)      2   0.008401(     9)      3  -0.016453(    14)     0
      5  C        1  -0.015789(     4)      2  -0.000004(    10)      3   0.000007(    15)     0
      6  H        5   0.000495(     5)      1   0.000003(    11)      2  -0.000005(    16)     0
      7  H        5   0.000442(     6)      6   0.008417(    12)      1  -0.000001(    17)     0
      8  H        5   0.000440(     7)      6   0.008403(    13)      7   0.016446(    18)     0
 -----------------------------------------------------------------------------------------------
 Internal  Forces:  Max     0.016453384 RMS     0.007725941
 Force constants in Cartesian coordinates: 
                1             2             3             4             5 
      1  0.587676D+00
      2 -0.127948D+00  0.378842D+00
      3 -0.403779D-01 -0.850614D-01  0.621887D+00
      4 -0.845275D-01  0.946029D-02 -0.758834D-02  0.623740D-01
      5  0.946025D-02 -0.690818D-01 -0.159883D-01 -0.428067D-02  0.553822D-01
      6  0.000000D+00  0.000000D+00 -0.355866D+00  0.000000D+00  0.000000D+00
      7 -0.317714D+00  0.366400D-02  0.980425D-01  0.149075D-01  0.131676D-03
      8 -0.110731D-01 -0.690480D-01  0.149105D-01  0.339734D-03  0.987568D-03
      9  0.904628D-01  0.871487D-02 -0.122552D+00  0.354577D-01  0.313193D-03
     10 -0.164820D+00  0.113696D+00 -0.504346D-01  0.632088D-02 -0.666737D-02
     11  0.128432D+00 -0.221942D+00  0.853894D-01 -0.687547D-02  0.957423D-02
     12 -0.504421D-01  0.755994D-01 -0.122551D+00 -0.221752D-01  0.276695D-01
     13 -0.256740D-01  0.331239D-02  0.104879D-02  0.925008D-03  0.135613D-02
     14  0.330898D-02 -0.202630D-01  0.219976D-02  0.135618D-02  0.313782D-02
     15  0.104663D-02  0.219748D-02 -0.265554D-01 -0.569429D-02 -0.119943D-01
     16 -0.189563D-02  0.526304D-03  0.118503D-02 -0.187469D-03  0.889986D-04
     17 -0.105333D-01  0.314177D-02  0.589551D-02  0.229746D-03 -0.109069D-03
     18 -0.450684D-02  0.125116D-02  0.281778D-02 -0.446413D-03  0.211929D-03
     19  0.602743D-02 -0.406566D-02  0.381947D-02 -0.296569D-03  0.140792D-03
     20  0.699185D-02 -0.478445D-02  0.464712D-02  0.000000D+00  0.000000D+00
     21  0.381767D-02 -0.270092D-02  0.281819D-02  0.446299D-03 -0.211874D-03
     22  0.927760D-03  0.135508D-02 -0.569492D-02  0.484074D-03 -0.229807D-03
     23  0.136114D-02  0.313491D-02 -0.119927D-01 -0.229885D-03  0.109135D-03
     24  0.000000D+00  0.000000D+00  0.223245D-05  0.000000D+00  0.000000D+00
                6             7             8             9            10 
      6  0.355866D+00
      7  0.000000D+00  0.311679D+00
      8  0.000000D+00 -0.166030D-02  0.553636D-01
      9  0.000000D+00 -0.104817D+00 -0.394904D-02  0.106439D+00
     10  0.000000D+00 -0.697772D-02  0.229239D-01 -0.165966D-01  0.159449D+00
     11  0.000000D+00 -0.266113D-02  0.955754D-02 -0.632953D-02 -0.125886D+00
     12  0.000000D+00  0.558915D-02 -0.168602D-01  0.132939D-01  0.632106D-01
     13  0.000000D+00 -0.189477D-02 -0.105302D-01 -0.450673D-02  0.602762D-02
     14  0.000000D+00  0.525728D-03  0.313932D-02  0.125045D-02 -0.406612D-02
     15  0.000000D+00  0.118556D-02  0.589867D-02  0.281987D-02  0.382064D-02
     16  0.000000D+00  0.726566D-04 -0.889783D-04  0.172814D-03  0.114864D-03
     17  0.000000D+00 -0.890413D-04  0.109044D-03 -0.211786D-03 -0.140767D-03
     18  0.000000D+00  0.173014D-03 -0.211881D-03  0.411516D-03  0.273522D-03
     19  0.000000D+00  0.114940D-03 -0.140760D-03  0.273386D-03  0.181711D-03
     20  0.000000D+00  0.000000D+00  0.000000D+00  0.000000D+00  0.000000D+00
     21  0.000000D+00 -0.172970D-03  0.211826D-03 -0.411411D-03 -0.273452D-03
     22  0.000000D+00 -0.187610D-03  0.229755D-03 -0.446233D-03 -0.296596D-03
     23  0.000000D+00  0.890955D-04 -0.109110D-03  0.211915D-03  0.140853D-03
     24  0.000000D+00  0.000000D+00  0.000000D+00  0.000000D+00  0.000000D+00
               11            12            13            14            15 
     11  0.207594D+00
     12 -0.837075D-01  0.106438D+00
     13  0.699046D-02  0.381758D-02  0.587894D+00
     14 -0.478394D-02 -0.270115D-02 -0.128000D+00  0.378802D+00
     15  0.464760D-02  0.281905D-02 -0.404532D-01 -0.849340D-01  0.621708D+00
     16  0.000000D+00 -0.172814D-03 -0.317879D+00  0.371835D-02  0.980209D-01
     17  0.000000D+00  0.211785D-03 -0.110259D-01 -0.690703D-01  0.148842D-01
     18  0.000000D+00 -0.411515D-03  0.904388D-01  0.869254D-02 -0.122528D+00
     19  0.000000D+00 -0.273385D-03 -0.164880D+00  0.113707D+00 -0.504364D-01
     20  0.000000D+00  0.000000D+00  0.128440D+00 -0.221909D+00  0.853842D-01
     21  0.000000D+00  0.411410D-03 -0.504352D-01  0.755893D-01 -0.122520D+00
     22  0.000000D+00  0.446231D-03 -0.845190D-01  0.944918D-02 -0.748987D-02
     23  0.000000D+00 -0.211914D-03  0.945699D-02 -0.690528D-01 -0.160839D-01
     24  0.000000D+00  0.000000D+00  0.899265D-04 -0.969173D-04 -0.355744D+00
               16            17            18            19            20 
     16  0.311846D+00
     17 -0.171580D-02  0.553771D-01
[...]
                     13                     14                     15
                      A                      A                      A
 Frequencies --   3125.4850              3125.8640              3303.6900
 Red. masses --      1.0086                 1.0087                 1.1185
 Frc consts  --      5.8053                 5.8071                 7.1924
 IR Inten    --  0.3253                 0.9573E-03             0.1804E-01
  Atom  AN      X      Y      Z        X      Y      Z        X      Y      Z
     1   6    -0.00  -0.01  -0.00    -0.00  -0.01  -0.00     0.02  -0.01   0.07
     2   1    -0.00  -0.00   0.43    -0.00  -0.00   0.39     0.00   0.00  -0.58
     3   1     0.37  -0.01  -0.21     0.34  -0.00  -0.19     0.14  -0.00  -0.06
     4   1    -0.36   0.09  -0.21    -0.33   0.08  -0.19    -0.36   0.09  -0.20
     5   6    -0.00  -0.01  -0.00     0.00   0.01   0.00    -0.01   0.01  -0.07
     6   1     0.33  -0.00  -0.20    -0.37   0.00   0.22    -0.16   0.00   0.08
     7   1    -0.33   0.08  -0.18     0.37  -0.09   0.20     0.31  -0.07   0.16
     8   1     0.01  -0.01   0.39    -0.01   0.01  -0.43     0.01  -0.00   0.54
                     16                     17                     18
                      A                      A                      A
 Frequencies --   3303.9763              3304.1661              3304.4542
 Red. masses --      1.1185                 1.1179                 1.1179
 Frc consts  --      7.1937                 7.1907                 7.1920
 IR Inten    --  0.6063E-01              6.782                  6.660    
  Atom  AN      X      Y      Z        X      Y      Z        X      Y      Z
     1   6     0.07  -0.01  -0.02     0.01  -0.01   0.07     0.06  -0.01  -0.02
     2   1     0.01  -0.00   0.14     0.00   0.00  -0.54     0.01  -0.00   0.13
     3   1    -0.52   0.00   0.30     0.15  -0.00  -0.08    -0.43   0.00   0.25
     4   1    -0.38   0.09  -0.23    -0.32   0.08  -0.17    -0.31   0.08  -0.19
     5   6    -0.06   0.01   0.02     0.02  -0.01   0.07     0.08  -0.01  -0.02
     6   1     0.43  -0.00  -0.26     0.16  -0.00  -0.08    -0.50   0.00   0.30
     7   1     0.32  -0.08   0.18    -0.35   0.08  -0.18    -0.40   0.10  -0.23
     8   1    -0.01   0.00  -0.12    -0.01   0.00  -0.58     0.01  -0.00   0.11

 -------------------
 - Thermochemistry -
 -------------------
 Temperature   298.150 Kelvin.  Pressure   1.00000 Atm.
 Atom     1 has atomic number  6 and mass  12.00000
 Atom     2 has atomic number  1 and mass   1.00783
 Atom     3 has atomic number  1 and mass   1.00783
 Atom     4 has atomic number  1 and mass   1.00783
 Atom     5 has atomic number  6 and mass  12.00000
 Atom     6 has atomic number  1 and mass   1.00783
 Atom     7 has atomic number  1 and mass   1.00783
 Atom     8 has atomic number  1 and mass   1.00783
 Molecular mass:    30.04695 amu.
 Principal axes and moments of inertia in atomic units:
                           1         2         3
     Eigenvalues --    24.97915 258.99123 258.99307
           X            0.12284  -0.64372   0.75534
           Y            0.98994   0.02568  -0.13910
           Z            0.07015   0.76483   0.64040
 This molecule is an asymmetric top.
 Rotational symmetry number  1.
 Rotational temperatures (Kelvin)      3.46744     0.33443     0.33443
 Rotational constants (GHZ):          72.24992     6.96835     6.96830
    1 imaginary frequencies ignored.
 Zero-point vibrational energy     165248.7 (Joules/Mol)
                                   39.49538 (Kcal/Mol)
 Warning -- explicit consideration of   6 degrees of freedom as
           vibrations may cause significant error
 Vibrational temperatures:     55.80   386.50   407.25   499.51   514.43
          (Kelvin)            838.45   907.68  2029.58  2030.18  2035.06
                             2035.65  4496.87  4497.42  4753.27  4753.68
                             4753.95  4754.37
 
 Zero-point correction=                           0.062940 (Hartree/Particle)
 Thermal correction to Energy=                    0.068593
 Thermal correction to Enthalpy=                  0.069537
 Thermal correction to Gibbs Free Energy=         0.036336
 Sum of electronic and zero-point Energies=            -79.625326
 Sum of electronic and thermal Energies=               -79.619673
 Sum of electronic and thermal Enthalpies=             -79.618729
 Sum of electronic and thermal Free Energies=          -79.651930
 
                     E (Thermal)             CV                S
                      KCal/Mol        Cal/Mol-Kelvin    Cal/Mol-Kelvin
 Total                   43.043             16.961             69.877
 Electronic               0.000              0.000              0.000
 Translational            0.889              2.981             36.134
 Rotational               0.889              2.981             22.043
 Vibrational             41.265             11.000             11.700
 Vibration     1          0.594              1.981              5.320
 Vibration     2          0.673              1.731              1.605
 Vibration     3          0.682              1.705              1.515
 Vibration     4          0.725              1.581              1.179
 Vibration     5          0.733              1.560              1.133
 Vibration     6          0.940              1.069              0.480
                       Q            Log10(Q)             Ln(Q)
 Total Bot       0.193438D-16        -16.713458        -38.484160
 Total V=0       0.172513D+13         12.236822         28.176324
 Vib (Bot)       0.203922D-27        -27.690536        -63.759815
 Vib (Bot)    1  0.533545D+01          0.727171          1.674372
 Vib (Bot)    2  0.719929D+00         -0.142710         -0.328603
 Vib (Bot)    3  0.678141D+00         -0.168680         -0.388400
 Vib (Bot)    4  0.532402D+00         -0.273761         -0.630357
 Vib (Bot)    5  0.513473D+00         -0.289482         -0.666557
 Vib (Bot)    6  0.260763D+00         -0.583754         -1.344142
 Vib (V=0)       0.181863D+02          1.259745          2.900669
 Vib (V=0)    1  0.585882D+01          0.767810          1.767949
 Vib (V=0)    2  0.137653D+01          0.138784          0.319563
 Vib (V=0)    3  0.134254D+01          0.127927          0.294564
 Vib (V=0)    4  0.123038D+01          0.090038          0.207321
 Vib (V=0)    5  0.121670D+01          0.085183          0.196140
 Vib (V=0)    6  0.106391D+01          0.026906          0.061953
 Electronic      0.100000D+01          0.000000          0.000000
 Translational   0.647375D+07          6.811156         15.683266
 Rotational      0.146528D+05          4.165922          9.592389
 -------------------------------------------------------------------
 Center     Atomic                   Forces (Hartrees/Bohr)
 Number     Number              X              Y              Z
 -------------------------------------------------------------------
      1        6          -0.001418245   -0.011072267   -0.000783825
      2        1           0.000021984   -0.000002669    0.000003396
      3        1           0.000003910   -0.000017661    0.000003586
      4        1           0.000008054    0.000001673   -0.000003548
      5        6           0.001382895    0.011097048    0.000759263
      6        1           0.000003203    0.000004811    0.000010977
      7        1          -0.000003360   -0.000007906    0.000005978
      8        1           0.000001559   -0.000003029    0.000004173
 -------------------------------------------------------------------
 Cartesian Forces:  Max     0.011097048 RMS     0.003233003
 -----------------------------------------------------------------------------------------------
                       Internal Coordinate Forces (Hartree/Bohr or radian)
  Cent   Atom   N1       Length/X         N2         Alpha/Y        N3         Beta/Z          J
 -----------------------------------------------------------------------------------------------
      1  C 
      2  H        1   0.000003(     1)
      3  H        1   0.000002(     2)      2  -0.000010(     8)
      4  H        1  -0.000005(     3)      2   0.000014(     9)      3   0.000006(    14)     0
      5  C        1  -0.011204(     4)      2   0.000026(    10)      3  -0.000023(    15)     0
      6  H        5   0.000003(     5)      1  -0.000024(    11)      2  -0.000003(    16)     0
      7  H        5   0.000002(     6)      6  -0.000016(    12)      1   0.000007(    17)     0
      8  H        5  -0.000004(     7)      6   0.000003(    13)      7  -0.000005(    18)     0
 -----------------------------------------------------------------------------------------------
 Internal  Forces:  Max     0.011204186 RMS     0.002640879

 GradGradGradGradGradGradGradGradGradGradGradGradGradGradGradGradGradGrad
 Berny optimization.
 Search for a local minimum.
 Step number   1 out of a maximum of    2
 All quantities printed in internal units (Hartrees-Bohrs-Radians)
 Second derivative matrix not updated -- analytic derivatives used.
 The second derivative matrix:
                          R1        R2        R3        A2        A3
           R1           0.37197
           R2           0.00009   0.37205
           R3           0.00010   0.00010   0.37205
           A2           0.01601   0.00067  -0.01558   0.18653
           A3           0.01601  -0.01560   0.00063   0.09020   0.18695
           D3           0.00009  -0.00328  -0.00422   0.01940   0.01689
           R21          0.00007  -0.00009   0.00006   0.00002   0.00001
           R22          0.00006   0.00007  -0.00009   0.00000   0.00002
           R23         -0.00009   0.00006   0.00007  -0.00007  -0.00006
           A22          0.00001  -0.00006   0.00003  -0.00029  -0.00047
           A23          0.00002  -0.00007   0.00000   0.00038  -0.00029
           D23          0.00017  -0.00021  -0.00022   0.00012   0.00019
           ANG2         0.00023  -0.00045   0.00022  -0.00039   0.00064
           DH3          0.00038   0.00000  -0.00039   0.00051  -0.00008
           DH2         -0.00000  -0.00000  -0.00000   0.00009  -0.00009
           DH1          0.00000  -0.00098   0.00098  -0.00239   0.00240
           ANG1        -0.00114   0.00056   0.00057  -0.00054  -0.00054
           BB          -0.00041  -0.00040  -0.00040  -0.00056  -0.00059
                          D3        R21       R22       R23       A22
           D3           0.02259
           R21          0.00021   0.37208
           R22         -0.00017   0.00010   0.37205
           R23          0.00021   0.00010   0.00010   0.37197
           A22         -0.00027   0.01603   0.00053  -0.01554   0.18670
           A23          0.00039   0.01594  -0.01551   0.00062   0.09020
           D23          0.00091  -0.00010   0.00327   0.00427  -0.01936
           ANG2        -0.00129  -0.00123   0.00057   0.00057  -0.00072
           DH3          0.00244   0.00002  -0.00096   0.00099  -0.00208
           DH2         -0.00001  -0.00019   0.00014  -0.00001  -0.00017
           DH1         -0.01092  -0.00031   0.00041  -0.00000   0.00036
           ANG1        -0.00663   0.00018   0.00024  -0.00044   0.00082
           BB           0.00408  -0.00040  -0.00040  -0.00041  -0.00057
                          A23       D23      ANG2       DH3       DH2
           A23          0.18670
           D23         -0.01683   0.02363
           ANG2        -0.00049   0.00724   0.02272
           DH3          0.00257   0.01198   0.00099   0.02274
           DH2          0.00012   0.00000   0.00010  -0.00023   0.00047
           DH1         -0.00048  -0.00007   0.00394  -0.00285  -0.00015
           ANG1        -0.00019  -0.00148  -0.00120  -0.00290  -0.00014
           BB          -0.00058  -0.00409  -0.00009  -0.00001  -0.00001
                          DH1      ANG1       BB
           DH1          0.02076
           ANG1        -0.00038   0.02433
           BB          -0.00004   0.00020  -0.01145
 ITU=  0
     Eigenvalues ---    0.00046   0.00762   0.00839   0.01916   0.02419
     Eigenvalues ---    0.03342   0.03825   0.09549   0.09612   0.27169
     Eigenvalues ---    0.27240   0.37225   0.37231   0.37281   0.37297
     Eigenvalues ---    0.37932   0.379471000.00000
 Angle between quadratic step and forces=  73.80 degrees.
 Linear search not attempted -- first point.
 Variable       Old X    -DE/DX   Delta X   Delta X   Delta X     New X
                                 (Linear)    (Quad)   (Total)
    R1        2.03756   0.00000   0.00000   0.00001   0.00001   2.03758
    R2        2.03758   0.00000   0.00000   0.00001   0.00001   2.03759
    R3        2.03761  -0.00000   0.00000  -0.00002  -0.00002   2.03759
    A2        2.08595  -0.00001   0.00000  -0.00015  -0.00015   2.08581
    A3        2.08548   0.00001   0.00000   0.00015   0.00015   2.08563
    D3        3.38648   0.00001   0.00000   0.00005   0.00005   3.38652
   R21        2.03758   0.00000   0.00000   0.00000   0.00000   2.03758
   R22        2.03757   0.00000   0.00000   0.00001   0.00001   2.03759
   R23        2.03758  -0.00000   0.00000  -0.00001  -0.00001   2.03757
   A22        2.08577  -0.00002   0.00000  -0.00015  -0.00015   2.08563
   A23        2.08572   0.00000   0.00000   0.00007   0.00007   2.08579
   D23        2.89772  -0.00001   0.00000  -0.00017  -0.00017   2.89755
   ANG2       1.64210  -0.00002   0.00000  -0.00076  -0.00076   1.64134
   DH3        1.69273   0.00001   0.00000   0.00034   0.00034   1.69307
   DH2        1.02613  -0.00000   0.00000  -0.00705  -0.00705   1.01908
   DH1        1.69423  -0.00002   0.00000  -0.00097  -0.00097   1.69326
   ANG1       1.64102   0.00003   0.00000   0.00103   0.00103   1.64206
    BB        5.66918  -0.01120   0.00000   0.00000   0.00000   5.66918
         Item               Value     Threshold  Converged?
 Maximum Force            0.000026     0.000450     YES
 RMS     Force            0.000012     0.000300     YES
 Maximum Displacement     0.007053     0.001800     NO 
 RMS     Displacement     0.001709     0.001200     NO 
 Predicted change in Energy=-5.103470D-08
 GradGradGradGradGradGradGradGradGradGradGradGradGradGradGradGradGradGrad


 Test job not archived.
 1\1\GINC-NODE-6-10\Freq\UwB97XD\Aug-CC-pVTZ\C2H6\CAVALLOTTI\27-May-202
 3\1\\#N Geom=AllCheck Guess=TCheck SCRF=Check Test GenChk UwB97XD/Aug-
 CC-pVTZ Freq\\geom 0\\0,1\C\H,1,R1\H,1,R2,2,A2\H,1,R3,2,A3,3,D3,0\C,1,
 BB,2,ANG1,3,DH1,0\H,5,R21,1,ANG2,2,DH2,0\H,5,R22,6,A22,1,DH3,0\H,5,R23
 ,6,A23,7,D23,0\\R1=1.07823243\R2=1.07824277\R3=1.07825491\A2=119.51631
 938\A3=119.48918396\D3=194.03086442\R21=1.07823989\R22=1.07823613\R23=
 1.0782433\A22=119.50600987\A23=119.50287701\D23=166.02710207\ANG2=94.0
 8548925\DH3=96.98642139\DH2=58.79301744\DH1=97.07209714\ANG1=94.023799
 34\BB=3.\\Version=EM64L-G09RevD.01\HF=-79.6882661\S2=0.807775\S2-1=0.\
 S2A=0.035325\RMSD=2.630e-09\RMSF=3.233e-03\ZeroPoint=0.0629399\Thermal
 =0.0685928\Dipole=-0.000034,0.0001929,0.0000519\DipoleDeriv=0.0034774,
 -0.039333,-0.002782,-0.0391248,-0.3100913,-0.0228746,-0.0027483,-0.022
 9197,0.0070134,0.0436232,0.0079394,-0.0015488,0.0079705,0.1072674,-0.0
 131694,-0.0005495,-0.0041514,-0.0502907,-0.0283157,0.0002899,0.0398758
 ,-0.0076773,0.1068692,0.0134543,0.0386101,0.0090086,0.0217151,-0.01879
 58,0.0311094,-0.0355332,0.0388357,0.0959957,0.0225886,-0.0353218,0.018
 0713,0.0215543,0.0034292,-0.0394891,-0.0026832,-0.0393574,-0.3103198,-
 0.0226321,-0.0028588,-0.0227258,0.0071033,-0.0266435,0.0002732,0.04083
 91,-0.007548,0.1067309,0.0137533,0.0396343,0.009202,0.0199439,-0.02031
 31,0.0313896,-0.0346391,0.0391703,0.0960274,0.0218347,-0.0343256,0.017
 5019,0.0232139,0.0435384,0.0078207,-0.0035286,0.0077309,0.1075205,-0.0
 129548,-0.0024404,-0.0039869,-0.0502531\Polar=31.040131,3.1931483,56.3
 840652,0.2235148,1.8250249,30.7643586\PG=C01 [X(C2H6)]\NImag=1\\0.6115
 1360,-0.07318770,0.02701104,-0.00536171,-0.04249079,0.61754739,-0.0536
 1916,0.00543617,-0.00030585,0.04495875,0.00543028,-0.01012247,-0.00253
 179,-0.00467228,0.00753037,0.00034964,0.00285220,-0.35850584,-0.000283
 42,-0.00241660,0.37196967,-0.28451805,0.00518637,0.13113030,0.00461591
 ,0.00029210,-0.00379099,0.29237025,0.00049728,-0.01000739,0.00597072,0
 .00051129,0.00220554,0.00004633,-0.00445095,0.00732775,0.13050330,0.00
 331428,-0.12763051,0.02402758,0.00040992,-0.00688044,-0.14041767,-0.00
 288495,0.12460908,-0.26981248,0.05984862,-0.12564645,0.00426752,-0.000
 79913,0.00367652,-0.01257682,0.00503847,-0.01371723,0.27781989,0.06454
 907,-0.02470421,0.03755406,-0.00102688,0.00257082,-0.00086706,-0.00124
 120,0.00259936,-0.00044858,-0.06326223,0.02190203,-0.12567269,0.034840
 22,-0.12755010,-0.02322882,0.00624003,-0.00689193,0.01321837,-0.003769
 68,0.00992290,0.13539633,-0.03682271,0.12454162,-0.00392321,0.00362234
 ,0.00022426,-0.00001033,-0.00028292,0.00006856,0.00009119,-0.00173262,
 -0.00027128,0.00027920,0.00110826,0.00015945,0.61150558,0.00361711,0.0
 2466494,0.00200358,-0.00027938,-0.00224208,0.00053245,0.00032663,-0.00
 217291,-0.00049470,-0.00094611,-0.00242234,-0.00055924,-0.07351981,0.0
 2690918,0.00026823,0.00199587,-0.00429809,-0.00023865,-0.00183859,0.00
 020921,0.00000544,0.00067689,0.00011060,0.00014912,0.00065974,0.000117
 71,-0.00525835,-0.04213617,0.61764592,0.00007914,0.00031635,0.00001706
 ,-0.00006978,-0.00012061,-0.00007245,0.00004710,0.00006272,-0.00009040
 ,0.00004271,-0.00005340,0.00000375,-0.27907006,0.00481855,0.13426952,0
 .28651862,-0.00171578,-0.00218635,0.00070547,-0.00003563,0.00030487,-0
 .00011781,0.00006412,-0.00048916,-0.00008729,0.00010369,0.00023439,0.0
 0016311,0.00021338,-0.01001264,0.00626980,-0.00405372,0.00731624,-0.00
 029208,-0.00050560,0.00012369,-0.00005406,0.00003186,0.00000592,-0.000
 08882,-0.00008989,-0.00008379,0.00003380,0.00016111,-0.00005674,0.1336
 3107,0.00353391,-0.13312992,-0.14377361,-0.00312091,0.13053296,0.00029
 284,-0.00095611,0.00015225,-0.00001453,0.00019436,0.00003863,0.0000451
 1,0.00011168,0.00002843,-0.00001117,-0.00018433,0.00006283,-0.27509888
 ,0.06051098,-0.12254514,-0.01257548,0.00496274,-0.01324529,0.28349741,
 0.00112608,-0.00242336,0.00062984,0.00011116,0.00023578,-0.00012724,-0
 .00005913,0.00024721,0.00016383,-0.00018248,-0.00042858,-0.00010608,0.
 06524171,-0.02460209,0.03622394,-0.00128344,0.00261654,-0.00044698,-0.
 06396249,0.02179627,0.00014024,-0.00053921,0.00010384,0.00006808,0.000
 00740,0.00000015,0.00000978,0.00016385,-0.00005041,0.00006495,-0.00010
 335,-0.00008689,-0.12256583,0.03361951,-0.12228325,0.01368274,-0.00387
 006,0.00991802,0.13205481,-0.03551717,0.11885356,-0.00001268,-0.000266
 05,-0.00020986,-0.00012837,-0.00004181,0.00001352,-0.00007469,-0.00003
 786,-0.00006272,-0.00000886,0.00011071,0.00006077,-0.05377349,0.005472
 03,-0.00665016,0.00502776,0.00046120,0.02378899,0.00386469,-0.00099141
 ,-0.02345479,0.04510563,-0.00031634,-0.00223220,-0.00184109,-0.0000444
 5,-0.00048283,0.00009775,-0.00011794,0.00028959,0.00002748,0.00019918,
 0.00024852,0.00001435,0.00534966,-0.01012207,-0.00185148,0.00031355,0.
 00221611,0.00043650,-0.00067684,0.00255823,0.00623904,-0.00470682,0.00
 752465,0.00006508,0.00053303,0.00020962,0.00001514,0.00009778,0.000093
 26,-0.00006641,-0.00011326,0.00000256,0.00004295,-0.00013321,0.0000034
 2,-0.00598789,0.00350066,-0.35837219,-0.00403661,0.00005768,-0.0073101
 5,0.00345348,-0.00082014,-0.00645502,0.00651426,-0.00312255,0.37182849
 \\0.00141824,0.01107227,0.00078382,-0.00002198,0.00000267,-0.00000340,
 -0.00000391,0.00001766,-0.00000359,-0.00000805,-0.00000167,0.00000355,
 -0.00138290,-0.01109705,-0.00075926,-0.00000320,-0.00000481,-0.0000109
 8,0.00000336,0.00000791,-0.00000598,-0.00000156,0.00000303,-0.00000417
 \\\@


 IF YOU GIVE EVERYONE A PIECE OF YOUR MIND,
 PRETTY SOON IT WILL BE ALL GONE.
 Job cpu time:       0 days  0 hours 52 minutes 10.2 seconds.
 File lengths (MBytes):  RWF=    106 Int=      0 D2E=      0 Chk=      7 Scr=      1
 Normal termination of Gaussian 09 at Sat May 27 08:57:00 2023.
