[Molden Format]
[Molpro variables]
_NUMVAR=  1056.000000000000    
_AVOGAD= 0.6022140760000000E+24
_BOLTZ= 0.1380649000000000E-22
_CLIGHTSI=  299792458.0000000    
_JOULE= 0.4359744722207100E-17
_JPCAL=  4.184000000000000    
_PLANCK= 0.6626070150000000E-33
_BOHR= 0.5291772109030000E-10
_ECHARG= 0.1602176634000000E-18
_ENULL= 0.8854187812800001E-11
_MU= 0.1660539066600000E-26
_EMASS= 0.9109383701500001E-30
_AMU2AU=  1822.888486217313    
_CLIGHT=  29979245800.00000    
_EV= 0.3674932217565494E-01
_KJOULE= 0.3808798847133432E-03
_KJOULE/MOL= 0.3808798847133432E-03
_CM= 0.4556335252912009E-05
_CM-1= 0.4556335252912009E-05
_DEB2SI= 0.3335640951981520E-29
_KCAL= 0.1593601437640628E-02
_KCAL/MOL= 0.1593601437640628E-02
_KELVIN= 0.3166811563455608E-05
_HERTZ= 0.1519829846057038E-15
_HZ= 0.1519829846057038E-15
_TOA= 0.5291772109030000    
_TOANG= 0.5291772109030000    
_TORAD= 0.1745329251994330E-01
_TOCM=  219474.6313631965    
_TODEBYE=  2.541746473194078    
_TOE= 0.4803204712570263E-09
_TOEV=  27.21138624598803    
_TOHERTZ=  6579683920501656.    
_TOHZ=  6579683920501656.    
_TOK=  315775.0248040668    
_TOKCAL=  627.5094740630558    
_TOKELVIN=  315775.0248040668    
_TOKJ=  2625.499639479825    
_TOKJOULE=  2625.499639479825    
_TOKG= 0.1660539066600000E-26
_ANG=  1.889726124625770    
_ANGSTROM=  1.889726124625770    
_RPAREF=  0.000000000000000    
_RPADISS=  0.000000000000000    
_IGNORE_UNDEF=  2.000000000000000    
_STRICTCHECK=  0.000000000000000    
!SEWARD=  0.000000000000000    
!MULTI=  0.000000000000000    
!DFMULTI=  0.000000000000000    
_SEW_ONEEL=  0.000000000000000    
_CPPDONE=FALSE
_DKROLL_DONE=  0.000000000000000    
_FNUC_DONE=  0.000000000000000    
_FOCKDONE=  0.000000000000000    
_GRADONE=FALSE
_HESSDONE=FALSE
_INTDONE=TRUE
_SCFDONE=FALSE
_MODUL_BLOCK=FALSE
_MODUL_CUDA=FALSE
_MODUL_SLATER=FALSE
_MODUL_MRCC=TRUE
_MODUL_NBO6=FALSE
_MODUL_NECI=FALSE
_MODUL_AIMS=TRUE
_MODUL_GECCO=FALSE
_ISWINDOWS=FALSE
_MRCC_EXEC=/software/cinetica/mrcc/bin/dmrcc
_FITC_AO_SAVED=FALSE
_FITC_MO_SAVED=FALSE
_SHARED_FS=TRUE
_LSTYP=SEWARD
_INTYP=INTS
_GEOMTYP=ZMAT
_GRADTYP=ALASKA
_DIRECT=FALSE
_DKHO= -1.000000000000000    
_FNUC=  0.000000000000000    
_SYNCM=  0.000000000000000    
_BASIS=CC-PVDZ
_ZORIENT=  1.000000000000000    
!ZORIENT=  0.000000000000000    
_NELEC=  18.00000000000000    
!SPIN=  0.000000000000000    
_QSDSTEP=  0.000000000000000    
_QSDIRC=  0.000000000000000    
_PROGRAM=RS2
_CPUSTEP=  1.180000000000000    
_SYSSTEP= 0.9999999999999998E-01
_WALLSTEP=  2.960000000000000    
!DFMP2=  0.000000000000000    
!DFHFENERG=  0.000000000000000    
!SCSGRD=  0.000000000000000    
_CPUTOT=  2.570000000000000    
_DMX= 0.1076642122403314E-03
_DMY= 0.8240463447571362E-04
_DMZ= 0.1839784281437544E-04
_EMP2= -79.39043487759635    
_ENERGR= -79.12124312751763    
_ENERGU= -79.37377430929682    
_ENERGY= -79.39043487759635    
_ENERGY_METHOD=RS2
_ENERGY_BASIS=cc-pVDZ
_GEOMETRY_METHOD=
_GEOMETRY_BASIS=
_ENERGY_AVRG= -79.12124312751757    
_ENUC=  30.93569238243110    
_GRADMETHOD=  9.000000000000000    
_NMRMETHOD=  0.000000000000000    
_NMRMAGNET=  0.000000000000000    
!GRID_FREEZE= -1.000000000000000    
!NEESE_INDEX=  0.000000000000000    
_ITERATIONS=  4.000000000000000    
_LASTNELEC=  2.000000000000000    
_LASTSPIN=  0.000000000000000    
_LASTSYM=  1.000000000000000    
_MPP_PROG=  1.000000000000000    
_MSNSTATES=  0.000000000000000    
_RS2PHASE=  0.000000000000000    
_IPROC_MPP=  0.000000000000000    
_IPROC_MPPX=  0.000000000000000    
_NPROC_MPP=  4.000000000000000    
_NPROC_MPPX=  4.000000000000000    
_NPROC_SMP=  1.000000000000000    
_NUMSTEP=  0.000000000000000    
_ORBITAL=  2140.200000000000    
_PI=  3.141592653589793    
!MCACT=  2.000000000000000    
!MCCLOSED=  8.000000000000000    
!MCFREEZE=  0.000000000000000    
!MCMS2=  0.000000000000000    
!MCNEL=  2.000000000000000    
!MCNSTSYM=  1.000000000000000    
!MCSTATE=  1.000000000000000    
!MCSYM=  1.000000000000000    
!MCWEIGHT=  1.000000000000000    
_SEIG_MIN= 0.1446390012661376E-01
_SEWPROP=TRUE
_STATUS=  1.000000000000000    
_SYSTOT= 0.5700000000000000    
_VERSION=  2022002.000000000    
_WALLTOT=  6.160000000000000    
_DATE=27-May-23
_LASTORB=MCSCF
_OUTPUT=/home/chimica2/cavallotti/qm/barrierless/vrc_autom/folders/ch3+ch3/dist_3.6/molpro.out
_PGROUP=C1
_TIME=09:31:45
_LIBMOL=/software/cinetica/molpro_2022.2/lib/
_VIGRDC=  0.000000000000000    
!VIBCNT=  0.000000000000000    
!RGHFCNT=  0.000000000000000    
!SURFREC=  0.000000000000000    
!XSURFREC=  0.000000000000000    
!XPOLYREC=  0.000000000000000    
!ROTREC=  0.000000000000000    
!POLYREC=  0.000000000000000    
!DIPREC=  0.000000000000000    
!DIP4DREC=  0.000000000000000    
!DIPROT=  0.000000000000000    
!DIP4DROT=  0.000000000000000    
!PTREC=  0.000000000000000    
!PT4DREC=  0.000000000000000    
!VSCFREC=  0.000000000000000    
!VCIREC=  0.000000000000000    
!PVCIREC=  0.000000000000000    
!VMP2REC=  0.000000000000000    
!VMCSCFREC=  0.000000000000000    
!VMRCIREC=  0.000000000000000    
!VIBSTATEREC=  0.000000000000000    
!VIBSTATECNT=  0.000000000000000    
!VIBINFO=  0.000000000000000    
!GAREC=  0.000000000000000    
!MCORB=  21402.00000000000    
!DEFCORE=  2.000000000000000    
!SCORE=  0.000000000000000    
!NEWMOL= -1.000000000000000    
!NEWSYM= -1.000000000000000    
_SLFILES=slscratch
_NGSSTO=  9.000000000000000    
_SIN=SIN
_COS=COS
_TAN=TAN
_ACOS=ACOS
_ASIN=ASIN
_ATAN=ATAN
_COSH=COSH
_SINH=SINH
_TANH=TANH
_ABS=ABS
_MOD=MOD
_ERF=ERF
_REFC=REFC
_ERFC=ERFC
_HYPOT=HYPOT
_J0=J0
_J1=J1
_JN=JN
_GAMMA=GAMMA
_LGAMMA=LGAMMA
_Y0=Y0
_Y1=Y1
_YN=YN
_EXP=EXP
_LOG=LOG
_LOG10=LOG10
_SQRT=SQRT
_INT=INT
_NINT=NINT
_MAX=MAX
_MIN=MIN
_COSMO=  0.000000000000000    
_COSMOIT=  0.000000000000000    
_COSMOES=  0.000000000000000    
_COSMOEDS=  0.000000000000000    
_COSMOEC=  0.000000000000000    
_COSMOEDCORR=  0.000000000000000    
_FEPSI=  1.000000000000000    
_SL_IsMM=  0.000000000000000    
_SL_NSYM=  1.000000000000000    
_SL_System_BitSw=  0.000000000000000    
_SL_Unique_atoms=  0.000000000000000    
_SL_GRAD=  0.000000000000000    
_SL_MAXUPD_Hess=  5.000000000000000    
_SL_N_PRINT_COD=  5.000000000000000    
_SL_PRINT_CODES=  0.000000000000000    
_SL_BasType=  0.000000000000000    
_SL_Energy_Pred=  0.000000000000000    
_SL_New_Coords=  0.000000000000000    
_SL_Total_Nuclea=  0.000000000000000    
_SL_Highest_Mltp=  0.000000000000000    
_SL_Ref_Geom=  0.000000000000000    
_SL_Symmetry_ope=  1.000000000000000    
_SL_agrad=  0.000000000000000    
_SL_GrdMax=  0.000000000000000    
_SL_GrdNorm=  0.000000000000000    
_SL_GrdRMS=  0.000000000000000    
_SL_Hss_Q=  0.000000000000000    
_SL_Hss_X=  0.000000000000000    
_SL_BMxOld=  0.000000000000000    
_SL_KtB=  0.000000000000000    
_SL_TROld=  0.000000000000000    
_SL_No_of_Intern=  0.000000000000000    
_SL_Hess=  0.000000000000000    
_SL_K=  0.000000000000000    
!LATTICE= -1.000000000000000    
!NEWLATTICE=  0.000000000000000    
!LATGRAD_VAR=FALSE
!SEW_LATTICE=  1.000000000000000    
!AIC_ONEEL=  0.000000000000000    
!LOCAL=  0.000000000000000    
!SAVEDOM= -1.000000000000000    
!RESTDOM= -1.000000000000000    
!SAVEDOM_HF= -1.000000000000000    
!RESTDOM_HF= -1.000000000000000    
!HESSREC=  0.000000000000000    
!FREQREC=  0.000000000000000    
!NMODREC=  0.000000000000000    
!GTASKS=  0.000000000000000    
!HTASKS=  0.000000000000000    
!SAVEDOM_EOM= -1.000000000000000    
!RESTDOM_EOM= -1.000000000000000    
!GRADSTATE= -1.000000000000000    
!DEBUG=  0.000000000000000    
!CFIT_CPHF=  0.000000000000000    
!RDOMAUX_CPHF=  0.000000000000000    
!THRAO_CPHF= 0.1000000000000000E-11
!THRMO_CPHF= 0.1000000000000000E-11
!THROV_CPHF= 0.1000000000000000E-11
!THRSW_CPHF= 0.1000000000000000E-11
!THRPROD_CPHF= 0.1000000000000000E-11
!THRAOPR_CPHF= 0.1000000000000000E-11
!CFIT_SCFGRD=  0.000000000000000    
!RDOMAUX_SCFGRD=  0.000000000000000    
!THRAO_SCFGRD= 0.1000000000000000E-11
!THRMO_SCFGRD= 0.1000000000000000E-11
!THROV_SCFGRD= 0.1000000000000000E-11
!THRSW_SCFGRD= 0.1000000000000000E-11
!THRPROD_SCFGRD= 0.1000000000000000E-11
!THRAOPR_SCFGRD= 0.1000000000000000E-11
!LOCFIT_SCF=  0.000000000000000    
!LOCFIT_MP2=  0.000000000000000    
_RIDOM=  0.000000000000000    
!CC2_METHOD=  0.000000000000000    
_BASIS2006=FALSE
_SVDDEL= -1.000000000000000    
_SVDDELA= -1.000000000000000    
_SVDDELP= -1.000000000000000    
_SVDDELF= -1.000000000000000    
_SVDDELS= -1.000000000000000    
_SVDDEL_ABS= -1.000000000000000    
_SVDDELA_ABS= -1.000000000000000    
_SVDDELP_ABS= -1.000000000000000    
_SVDDELF_ABS= -1.000000000000000    
_SVDDELS_ABS= -1.000000000000000    
_MAXBASIS=  0.000000000000000    
!OPT_CONICAL=  0.000000000000000    
!CLEARSP_JGRID=  0.000000000000000    
_GRDHYBR=  0.000000000000000    
_STATEGRAD=  1.000000000000000    
_4EXT_NDISKS=  1.000000000000000    
!EMBEDFLAG=  1.000000000000000    
!EMBED=FALSE
!EMBED_F12=FALSE
!EMBEDNUC=  0.000000000000000    
_EMBEDENERGY=  0.000000000000000    
!EMBED_DFC=FALSE
!NUM_VOIDS=  0.000000000000000    
_IBODY=  0.000000000000000    
_EMBE_CORR=  0.000000000000000    
!EMBED_PROJ=FALSE
!EMB_PROJ_ZMU=  1000000.000000000    
!CORRECTION_HF=  0.000000000000000    
!EMBED_AORB=  0.000000000000000    
!EMBED_NACORR=  0.000000000000000    
!EMBED_MP2=FALSE
!EMBED_TRUNC_PERTURBATION=FALSE
!EMBED_FROZEN=  0.000000000000000    
!EMBED_ACTIVE=  0.000000000000000    
_CHANGE_BASIS=FALSE
_RESTORE_BASIS=FALSE
_FIX_EMBED_GUESS=FALSE
_EMBED_SCF=FALSE
_HUZINAGA_T=FALSE
_HUZINAGA_F=FALSE
_HUZINAGA=FALSE
_HUZINAGA_CORRECT=FALSE
!FASTLATGRAD=  1.000000000000000    
!FASTVLAMBDA= -1.000000000000000    
!IFORCE= -1.000000000000000    
!USESYM= -1.000000000000000    
_SINDEX=  0.000000000000000    
_AVDOM_OSV=  0.000000000000000    
_AVDOM_PNO=  0.000000000000000    
_AVDOM_PAO=  0.000000000000000    
_AVDOM_LMO=  0.000000000000000    
_CC2OSV_FLAG=  0.000000000000000    
_EOMCCSD_CONV=FALSE
_TMADC2_FLAG=FALSE
_PROPADC2_FLAG=FALSE
_LEN_VirQ=  0.000000000000000    
_GRDCC2LR_FLAG=FALSE
_GRDADC2_FLAG=FALSE
_DMX_CC=-0.6698604069611536E-03
_DMY_CC=-0.5193733577431026E-03
_DMZ_CC=-0.8202943267310303E-04
_DMX_NUC= 0.4757228139999625E-03
_DMY_NUC= 0.3727869709995169E-03
_DMZ_NUC= 0.4891968399700630E-04
_RO_VGLOBAL=  0.000000000000000    
_OPT=FALSE
_FREQ=FALSE
_HESS=FALSE
_CMRCC_callName=EMPTY
_CMRCC_callCount=  0.000000000000000    
_GECCO_CIROOT=  1.000000000000000    
_SYM_CATION=  0.000000000000000    
_MON_A=FALSE
_MON_B=FALSE
R1=  1.078200000000000    
R2=  1.078200000000000    
R3=  1.078200000000000    
A2=  119.9836000000000    
A3=  120.0097000000000    
D3=  181.7216000000000    
R21=  1.078200000000000    
R22=  1.078200000000000    
R23=  1.078200000000000    
A22=  119.9682000000000    
A23=  120.0114000000000    
D23=  178.2745000000000    
ANG2=  90.50480000000000    
DH3=  90.39490000000001    
DH2=  59.56580000000000    
DH1=  90.50350000000000    
ANG1=  90.51270000000000    
BB=  3.600000000000000    
GX1= 0.1055178312753678E-03
GY1=-0.4341145135287154E-03
GZ1= -3.401511131633514    
GX2=-0.1494084311471570    
GY2=  2.031491424049876    
GZ2= -3.419989988630262    
GX3=  1.834830527741473    
GY3=-0.8865282516067219    
GZ3= -3.407724148639148    
GX4= -1.684291150861797    
GY4= -1.146480764948085    
GZ4= -3.429834635735819    
GX5=-0.1859255301376564E-03
GY5= 0.3711052536014316E-03
GZ5=  3.401502863122699    
GX6= -1.827876758712728    
GY6= 0.9007309584494734    
GZ6=  3.419269022377077    
GX7=  1.692870645989065    
GY7=  1.133934906507667    
GZ7=  3.404639339376716    
GX8= 0.1348333360002468    
GY8= -2.032397429920922    
GZ8=  3.433738942000673    
CBSEN= -79.39043487759635    
[Atoms] Angs
C     1    6         0.0000558376       -0.0002297235       -1.8000021735
H     2    1        -0.0790635369        1.0750189658       -1.8097807635
H     3    1         0.9709505011       -0.4691305476       -1.8032899605
H     4    1        -0.8912884936       -0.6066914935       -1.8149903264
C     5    6        -0.0000983876        0.0001963804        1.7999977980
H     6    1        -0.9672707251        0.4766462964        1.8093992446
H     7    1         0.8958285669        0.6000525112        1.8016575497
H     8    1         0.0713507287       -1.0754984034        1.8170563963
[GTO]
   1 0
 s    9  1.00
  0.6665000000D+04  0.6920001793D-03
  0.1000000000D+04  0.5329001381D-02
  0.2280000000D+03  0.2707700701D-01
  0.6471000000D+02  0.1017180264D+00
  0.2106000000D+02  0.2747400712D+00
  0.7495000000D+01  0.4485641162D+00
  0.2797000000D+01  0.2850740738D+00
  0.5215000000D+00  0.1520400394D-01
  0.1596000000D+00 -0.3191000827D-02
 s    9  1.00
  0.6665000000D+04 -0.1460000642D-03
  0.1000000000D+04 -0.1154000508D-02
  0.2280000000D+03 -0.5725002519D-02
  0.6471000000D+02 -0.2331201026D-01
  0.2106000000D+02 -0.6395502813D-01
  0.7495000000D+01 -0.1499810660D+00
  0.2797000000D+01 -0.1272620560D+00
  0.5215000000D+00  0.5445292395D+00
  0.1596000000D+00  0.5804962554D+00
 s    9  1.00
  0.6665000000D+04  0.0000000000D+00
  0.1000000000D+04  0.0000000000D+00
  0.2280000000D+03  0.0000000000D+00
  0.6471000000D+02  0.0000000000D+00
  0.2106000000D+02  0.0000000000D+00
  0.7495000000D+01  0.0000000000D+00
  0.2797000000D+01  0.0000000000D+00
  0.5215000000D+00  0.0000000000D+00
  0.1596000000D+00  0.1000000000D+01
 p    4  1.00
  0.9439000000D+01  0.3810902127D-01
  0.2002000000D+01  0.2094801169D+00
  0.5456000000D+00  0.5085572839D+00
  0.1517000000D+00  0.4688422617D+00
 p    4  1.00
  0.9439000000D+01  0.0000000000D+00
  0.2002000000D+01  0.0000000000D+00
  0.5456000000D+00  0.0000000000D+00
  0.1517000000D+00  0.1000000000D+01
 d    1  1.00
  0.5500000000D+00  0.1000000000D+01
  
   2 0
 s    4  1.00
  0.1301000000D+02  0.1968498999D-01
  0.1962000000D+01  0.1379769298D+00
  0.4446000000D+00  0.4781477569D+00
  0.1220000000D+00  0.5012397451D+00
 s    4  1.00
  0.1301000000D+02  0.0000000000D+00
  0.1962000000D+01  0.0000000000D+00
  0.4446000000D+00  0.0000000000D+00
  0.1220000000D+00  0.1000000000D+01
 p    1  1.00
  0.7270000000D+00  0.1000000000D+01
  
   3 0
 s    4  1.00
  0.1301000000D+02  0.1968498999D-01
  0.1962000000D+01  0.1379769298D+00
  0.4446000000D+00  0.4781477569D+00
  0.1220000000D+00  0.5012397451D+00
 s    4  1.00
  0.1301000000D+02  0.0000000000D+00
  0.1962000000D+01  0.0000000000D+00
  0.4446000000D+00  0.0000000000D+00
  0.1220000000D+00  0.1000000000D+01
 p    1  1.00
  0.7270000000D+00  0.1000000000D+01
  
   4 0
 s    4  1.00
  0.1301000000D+02  0.1968498999D-01
  0.1962000000D+01  0.1379769298D+00
  0.4446000000D+00  0.4781477569D+00
  0.1220000000D+00  0.5012397451D+00
 s    4  1.00
  0.1301000000D+02  0.0000000000D+00
  0.1962000000D+01  0.0000000000D+00
  0.4446000000D+00  0.0000000000D+00
  0.1220000000D+00  0.1000000000D+01
 p    1  1.00
  0.7270000000D+00  0.1000000000D+01
  
   5 0
 s    9  1.00
  0.6665000000D+04  0.6920001793D-03
  0.1000000000D+04  0.5329001381D-02
  0.2280000000D+03  0.2707700701D-01
  0.6471000000D+02  0.1017180264D+00
  0.2106000000D+02  0.2747400712D+00
  0.7495000000D+01  0.4485641162D+00
  0.2797000000D+01  0.2850740738D+00
  0.5215000000D+00  0.1520400394D-01
  0.1596000000D+00 -0.3191000827D-02
 s    9  1.00
  0.6665000000D+04 -0.1460000642D-03
  0.1000000000D+04 -0.1154000508D-02
  0.2280000000D+03 -0.5725002519D-02
  0.6471000000D+02 -0.2331201026D-01
  0.2106000000D+02 -0.6395502813D-01
  0.7495000000D+01 -0.1499810660D+00
  0.2797000000D+01 -0.1272620560D+00
  0.5215000000D+00  0.5445292395D+00
  0.1596000000D+00  0.5804962554D+00
 s    9  1.00
  0.6665000000D+04  0.0000000000D+00
  0.1000000000D+04  0.0000000000D+00
  0.2280000000D+03  0.0000000000D+00
  0.6471000000D+02  0.0000000000D+00
  0.2106000000D+02  0.0000000000D+00
  0.7495000000D+01  0.0000000000D+00
  0.2797000000D+01  0.0000000000D+00
  0.5215000000D+00  0.0000000000D+00
  0.1596000000D+00  0.1000000000D+01
 p    4  1.00
  0.9439000000D+01  0.3810902127D-01
  0.2002000000D+01  0.2094801169D+00
  0.5456000000D+00  0.5085572839D+00
  0.1517000000D+00  0.4688422617D+00
 p    4  1.00
  0.9439000000D+01  0.0000000000D+00
  0.2002000000D+01  0.0000000000D+00
  0.5456000000D+00  0.0000000000D+00
  0.1517000000D+00  0.1000000000D+01
 d    1  1.00
  0.5500000000D+00  0.1000000000D+01
  
   6 0
 s    4  1.00
  0.1301000000D+02  0.1968498999D-01
  0.1962000000D+01  0.1379769298D+00
  0.4446000000D+00  0.4781477569D+00
  0.1220000000D+00  0.5012397451D+00
 s    4  1.00
  0.1301000000D+02  0.0000000000D+00
  0.1962000000D+01  0.0000000000D+00
  0.4446000000D+00  0.0000000000D+00
  0.1220000000D+00  0.1000000000D+01
 p    1  1.00
  0.7270000000D+00  0.1000000000D+01
  
   7 0
 s    4  1.00
  0.1301000000D+02  0.1968498999D-01
  0.1962000000D+01  0.1379769298D+00
  0.4446000000D+00  0.4781477569D+00
  0.1220000000D+00  0.5012397451D+00
 s    4  1.00
  0.1301000000D+02  0.0000000000D+00
  0.1962000000D+01  0.0000000000D+00
  0.4446000000D+00  0.0000000000D+00
  0.1220000000D+00  0.1000000000D+01
 p    1  1.00
  0.7270000000D+00  0.1000000000D+01
  
   8 0
 s    4  1.00
  0.1301000000D+02  0.1968498999D-01
  0.1962000000D+01  0.1379769298D+00
  0.4446000000D+00  0.4781477569D+00
  0.1220000000D+00  0.5012397451D+00
 s    4  1.00
  0.1301000000D+02  0.0000000000D+00
  0.1962000000D+01  0.0000000000D+00
  0.4446000000D+00  0.0000000000D+00
  0.1220000000D+00  0.1000000000D+01
 p    1  1.00
  0.7270000000D+00  0.1000000000D+01


[MO]
 Sym=      1.1
 Ene=     -11.2278
 Spin= Alpha
 Occup=    2.000000
1 0.64560885688081
2 0.005004170289860
3 -0.004865048137135
4 0.000000252494534
5 0.000000281720107
6 -0.000082551359327
7 0.000000327725755
8 -0.000000599744895
9 0.000147432510638
10 0.000243040299949
11 0.000243190101031
12 -0.000486230400980
13 0.000000102876758
14 0.000005364677700
15 -0.000000018052515
16 -0.000510882983826
17 0.001033108640799
18 -0.000025443151725
19 0.000344399288996
20 -0.000029798353116
21 -0.000512151823758
22 0.001033831831863
23 0.000310968163644
24 -0.000150122739597
25 -0.000027751552653
26 -0.000511451204044
27 0.001034606607641
28 -0.000285360411631
29 -0.000193948523651
30 -0.000031384131570
31 0.76540986685451
32 0.005982999211865
33 -0.005871368452297
34 0.000000262169055
35 0.000000038904069
36 0.000071071544389
37 -0.000000151439286
38 0.000000571844071
39 -0.000113119070076
40 0.000285002617643
41 0.000285592823937
42 -0.000570595441580
43 -0.000000213350395
44 -0.000003612360513
45 -0.000007389440152
46 -0.000579272996104
47 0.001220400745390
48 -0.000363962893785
49 0.000179021866681
50 0.000025221618141
51 -0.000578983633104
52 0.001219246569065
53 0.000337307803959
54 0.000225600180124
55 0.000022386694292
56 -0.000578608491297
57 0.001220146977256
58 0.000026853000243
59 -0.000404796729730
60 0.000028061343386
 Sym=      2.1
 Ene=     -11.2278
 Spin= Alpha
 Occup=    2.000000
1 0.76547508806338
2 0.006231311260625
3 -0.006382514905125
4 -0.000000473357072
5 0.000000069993440
6 0.000061630015236
7 -0.000000449763641
8 0.000000536303721
9 -0.000191449891374
10 0.000270524389831
11 0.000271367862937
12 -0.000541892252768
13 0.000000658047241
14 0.000005693140678
15 0.000000146160553
16 -0.000444699903797
17 0.001192450361076
18 -0.000028632005720
19 0.000387094308011
20 0.000023671887102
21 -0.000441498443874
22 0.001190686083336
23 0.000349079627402
24 -0.000168635922797
25 0.000026029567060
26 -0.000444642916053
27 0.001191676757137
28 -0.000321117172629
29 -0.000218372039198
30 0.000021738117701
31 -0.64568617846000
32 -0.005298549449249
33 0.005471030721708
34 0.000000279141628
35 0.000000607683050
36 0.000074577729331
37 -0.000000054698693
38 0.000001019479631
39 -0.000213518457395
40 -0.000225229278222
41 -0.000226924097452
42 0.000452153375674
43 0.000000490751352
44 0.000002795994471
45 0.000005490585714
46 0.000350247144695
47 -0.000999583055042
48 0.000290967310236
49 -0.000143142838007
50 0.000028435376741
51 0.000348935199766
52 -0.000999760098406
53 -0.000269141776900
54 -0.000180088494610
55 0.000030841397865
56 0.000353946489881
57 -0.001001458281751
58 -0.000021429059467
59 0.000324094991517
60 0.000026087706605
 Sym=      3.1
 Ene=      -0.8988
 Spin= Alpha
 Occup=    2.000000
1 -0.019812488071375
2 0.53260981876544
3 -0.10467888798012
4 0.000047593704886
5 0.000000008009345
6 -0.001445062407117
7 -0.000027967073811
8 0.000010511337771
9 0.001012218117073
10 0.001053282038935
11 0.001053691937473
12 -0.002106973976408
13 -0.000001191210366
14 0.000023164698787
15 0.000000919219186
16 0.24713368348023
17 -0.10166962010554
18 0.001481751342747
19 -0.020107041543258
20 0.000129700812902
21 0.24715082298727
22 -0.10165942158566
23 -0.018155349649815
24 0.008769121427348
25 0.000008777861624
26 0.24710778465318
27 -0.10166708923988
28 0.016668646991494
29 0.011339277456573
30 0.000225757167807
31 -0.019813663168112
32 0.53264175411828
33 -0.10468518793178
34 0.000029036999325
35 0.000058989949202
36 0.001451850428803
37 -0.000011299716586
38 -0.000040986999379
39 -0.001013548782583
40 0.001054385325959
41 0.001052650645881
42 -0.002107035971840
43 0.000001014452998
44 -0.000013925371430
45 -0.000026849241088
46 0.24714194467098
47 -0.10166854676884
48 0.018088384344324
49 -0.008907010384009
50 -0.000121930997833
51 0.24717540715827
52 -0.10166650017003
53 -0.016755925147414
54 -0.011216547390193
55 0.000021365280859
56 0.24711948967059
57 -0.10167945584378
58 -0.001334755268339
59 0.020116559838027
60 -0.000264441851404
 Sym=      4.1
 Ene=      -0.8939
 Spin= Alpha
 Occup=    2.000000
1 -0.019750939754465
2 0.53620109465508
3 -0.10370575320927
4 0.000026816203766
5 -0.000005098581358
6 -0.006554089586975
7 -0.000000257341959
8 0.000006175074032
9 -0.000510084276171
10 0.001449191576158
11 0.001448213279284
12 -0.002897404855442
13 0.000000379225434
14 0.000028104950585
15 0.000001578924809
16 0.24916139013289
17 -0.10374861399748
18 0.001474611429948
19 -0.020022412547777
20 -0.000030830084051
21 0.24913177241355
22 -0.10374419511126
23 -0.018075163748267
24 0.008730203072424
25 -0.000154940085016
26 0.24917572702588
27 -0.10374539004973
28 0.016600347663708
29 0.011293664705812
30 0.000066975589116
31 0.019749763326262
32 -0.53616920047349
33 0.10369940140615
34 -0.000014025171849
35 -0.000037579112232
36 -0.006561594001038
37 -0.000002590671598
38 0.000005717052721
39 -0.000509065257365
40 -0.001448906552092
41 -0.001448274765620
42 0.002897181317712
43 0.000000578262137
44 0.000017125419391
45 0.000032306795683
46 -0.24913928816784
47 0.10373810476654
48 -0.018008960276192
49 0.008869304902462
50 -0.000039333720408
51 -0.24911393724134
52 0.10373951912446
53 0.016678674131580
54 0.011165786817817
55 -0.000185600662802
56 -0.24917171104027
57 0.10374273616468
58 0.001329752110905
59 -0.020033639738747
60 0.000106864191576
 Sym=      5.1
 Ene=      -0.5694
 Spin= Alpha
 Occup=    2.000000
1 0.000003364571747
2 -0.000094813405827
3 -0.000011507179117
4 0.022868507149511
5 0.44901327126116
6 0.000212477521189
7 -0.004357602803014
8 -0.085552484488306
9 -0.000030915968130
10 -0.013934621013796
11 0.013931060307048
12 0.000003560706747
13 -0.004480559996300
14 -0.000129484615613
15 -0.000532485535024
16 0.44485046086999
17 -0.12472702992543
18 0.002264417230256
19 -0.015603396272184
20 0.000205181532078
21 -0.17426194221274
22 0.048868063006884
23 0.009148828573217
24 0.004771274449756
25 -0.000015942445832
26 -0.27074228450813
27 0.075965191893778
28 -0.011941633731822
29 0.000532925621107
30 -0.000185007342988
31 0.000004597120008
32 -0.000032113758250
33 -0.000032333096236
34 0.015658336506767
35 0.45220882915977
36 -0.003368972714914
37 -0.002983193451582
38 -0.086158287166806
39 0.000658909649044
40 0.014162950653205
41 -0.014154230466729
42 -0.000008720186476
43 0.003887519377910
44 -0.000073341051086
45 0.000618594680368
46 0.18516546993380
47 -0.051958066941720
48 0.009513867371103
49 0.004500186483561
50 -0.000143513839182
51 0.26382846585099
52 -0.073981015967963
53 -0.011830083283798
54 0.000902270495930
55 -0.000076419459794
56 -0.44896628966411
57 0.12593066386867
58 0.001960769986735
59 -0.015778070035497
60 0.000298131399883
 Sym=      6.1
 Ene=      -0.5694
 Spin= Alpha
 Occup=    2.000000
1 0.000004966802101
2 -0.000060655699262
3 -0.000030022280398
4 0.45215799202783
5 -0.016007311994434
6 0.002829984497458
7 -0.086116322204079
8 0.003058864950058
9 -0.000548925995509
10 0.003697495849903
11 -0.003692509649950
12 -0.000004986199953
13 -0.016261496069937
14 -0.000485254828648
15 -0.000086381592126
16 -0.049115742831041
17 0.013748373516905
18 0.008831750939438
19 0.002393034602420
20 0.000033349433618
21 0.41296725780873
22 -0.11579568799982
23 -0.011563788293522
24 0.009627568487756
25 0.000103212841831
26 -0.36389194590863
27 0.10208372118152
28 -0.007629723659178
29 -0.011656571469263
30 -0.000198562026119
31 0.000004628441801
32 -0.000090705009541
33 -0.000022649068956
34 0.44906768373797
35 -0.022533922712302
36 -0.001500623001038
37 -0.085531573622582
38 0.004281470311198
39 0.000284869244685
40 -0.003559377118625
41 0.003558402841685
42 0.000000974276941
43 0.016197007638065
44 0.000401847179760
45 -0.000117245692192
46 -0.41175105660994
47 0.11548697916480
48 -0.011486568647113
49 0.009627919714051
50 0.000142673249468
51 0.35963552679407
52 -0.10080427215232
53 -0.007580069232670
54 -0.011531845187456
55 -0.000043767814694
56 0.052000851428157
57 -0.014598901684087
58 0.008778742062903
59 0.002422988127509
60 -0.000071691958486
 Sym=      7.1
 Ene=      -0.5664
 Spin= Alpha
 Occup=    2.000000
1 -0.000004379558448
2 0.000087568486876
3 0.000011259111168
4 0.017218797818538
5 0.45485333616064
6 0.000107545800154
7 -0.003276752078083
8 -0.086215487866830
9 -0.000022261434690
10 -0.014226476276062
11 0.014232531719059
12 -0.000006055442997
13 -0.004343816164472
14 -0.000140269645584
15 -0.000920045001290
16 0.45140857299209
17 -0.12840402507356
18 0.002160397190002
19 -0.015717880192398
20 -0.000098633200650
21 -0.18186215394727
22 0.051699275459058
23 0.009334743052023
24 0.004660648770795
25 0.000100176569656
26 -0.26941897141232
27 0.076635992055493
28 -0.011892897656106
29 0.000682820999266
30 -0.000010179929136
31 0.000001424244832
32 0.000010699642076
33 -0.000018042404172
34 -0.023702372725935
35 -0.45169426729865
36 0.003395378706888
37 0.004481159865649
38 0.085631173236417
39 -0.000653443629559
40 -0.014167559456447
41 0.014157365551689
42 0.000010193904758
43 -0.004199700004985
44 0.000047272485937
45 -0.000996834300546
46 -0.17785392944024
47 0.050625642185133
48 -0.009232877731552
49 -0.004626274085232
50 0.000021039267425
51 -0.27035442897954
52 0.076903030262744
53 0.011868717761920
54 -0.000680609855667
55 -0.000105829621579
56 0.44817421191233
57 -0.12747504261951
58 -0.002100063706538
59 0.015613814903698
60 -0.000000698585035
 Sym=      8.1
 Ene=      -0.5664
 Spin= Alpha
 Occup=    2.000000
1 0.000003027035840
2 -0.000032055253930
3 -0.000019749123547
4 -0.45174354865910
5 0.024058921476355
6 -0.002798851584688
7 0.085591444335266
8 -0.004534925097598
9 0.000539284170874
10 -0.003972077776663
11 0.003962046649625
12 0.000010031127038
13 0.016263561089383
14 0.000863089451866
15 0.000058290230916
16 0.057065732500085
17 -0.016209991501227
18 -0.008713656532039
19 -0.002647653122354
20 -0.000065408101089
21 -0.41634557295047
22 0.11845495695743
23 0.011644409599871
24 -0.009467281610295
25 0.000179934168045
26 0.35919898216701
27 -0.10217244244547
28 0.007362787438637
29 0.011572251005422
30 -0.000041633639649
31 -0.000004051245922
32 0.000066490343273
33 0.000015817618328
34 0.45484597837447
35 -0.016874239858476
36 -0.001506307232646
37 -0.086163860579674
38 0.003219102846357
39 0.000291020681352
40 -0.003429239735341
41 0.003436867310339
42 -0.000007627574998
43 0.016535593470614
44 0.000787468989100
45 -0.000126467263546
46 -0.41457252845480
47 0.11791488679768
48 -0.011416909803428
49 0.009726099855930
50 -0.000131284519058
51 0.36782111747769
52 -0.10463708152497
53 -0.007778497782828
54 -0.011570772100212
55 0.000207315380872
56 0.046869608118792
57 -0.013355727225331
58 0.008835881244924
59 0.002234499749283
60 -0.000033514497100
 Sym=      9.1
 Ene=      -0.1401
 Spin= Alpha
 Occup=    1.231256
1 0.000658225701505
2 -0.006140820120116
3 -0.009406206669629
4 -0.003921104981275
5 -0.000015869295138
6 0.60547111903734
7 -0.000523216872597
8 0.000016504857234
9 0.079277670137500
10 -0.001404626670229
11 -0.001396656228444
12 0.002801282898673
13 0.000010098149746
14 -0.000021255508549
15 -0.000000920735821
16 -0.010130130222458
17 0.010863240621079
18 -0.000074148875876
19 -0.000162360501190
20 0.014115426716932
21 -0.010255008813073
22 0.011008410540470
23 -0.000234870173691
24 0.000070718561496
25 0.014129397963318
26 -0.010094164062344
27 0.010909415467999
28 0.000050599041571
29 0.000091675257384
30 0.014107729780379
31 0.000658307979473
32 -0.006123249734909
33 -0.009398730577217
34 -0.002275795396422
35 -0.004627154070016
36 -0.60546198578070
37 -0.000292414001452
38 -0.000628167474884
39 -0.079275967257443
40 -0.001412392484895
41 -0.001389875781602
42 0.002802268266497
43 -0.000007491206943
44 0.000012818079794
45 0.000024245480276
46 -0.010183674788970
47 0.010973710987587
48 0.000098303300392
49 -0.000174158477086
50 -0.014118195359052
51 -0.010270367375929
52 0.010987581042301
53 -0.000186429779922
54 -0.000192031913168
55 -0.014131388393267
56 -0.010044016596174
57 0.010820484969648
58 -0.000061166650000
59 0.000060618668591
60 -0.014102364776446
 Sym=     10.1
 Ene=      -0.0586
 Spin= Alpha
 Occup=    0.768744
1 -0.000451047606467
2 0.022883292190594
3 0.013236286879831
4 -0.004013999902593
5 -0.000077098876638
6 0.66385053183589
7 -0.000367204474559
8 -0.000006549129274
9 0.062923629217166
10 0.000979867617246
11 0.000971069563367
12 -0.001950937180612
13 -0.000010931148665
14 0.000017493196556
15 0.000003960049691
16 0.006565620193926
17 -0.011052828246506
18 -0.000117025771069
19 0.000382309504674