 Entering Gaussian System, Link 0=g09
 Input=geom.com
 Output=geom.log
 Initial command:
 /software/cinetica/g09d1/g09d01/d01/build-node-6-2-59348/src/main/l1.exe "/scratch/cc/139148/Gau-171886.inp" -scrdir="/scratch/cc/139148/"
 Entering Link 1 = /software/cinetica/g09d1/g09d01/d01/build-node-6-2-59348/src/main/l1.exe PID=    171887.
  
 Copyright (c) 1988,1990,1992,1993,1995,1998,2003,2009,2013,
            Gaussian, Inc.  All Rights Reserved.
  
 This is part of the Gaussian(R) 09 program.  It is based on
 the Gaussian(R) 03 system (copyright 2003, Gaussian, Inc.),
 the Gaussian(R) 98 system (copyright 1998, Gaussian, Inc.),
 the Gaussian(R) 94 system (copyright 1995, Gaussian, Inc.),
 the Gaussian 92(TM) system (copyright 1992, Gaussian, Inc.),
 the Gaussian 90(TM) system (copyright 1990, Gaussian, Inc.),
 the Gaussian 88(TM) system (copyright 1988, Gaussian, Inc.),
 the Gaussian 86(TM) system (copyright 1986, Carnegie Mellon
 University), and the Gaussian 82(TM) system (copyright 1983,
 Carnegie Mellon University). Gaussian is a federally registered
 trademark of Gaussian, Inc.
  
 This software contains proprietary and confidential information,
 including trade secrets, belonging to Gaussian, Inc.
  
 This software is provided under written license and may be
 used, copied, transmitted, or stored only in accord with that
 written license.
  
 The following legend is applicable only to US Government
 contracts under FAR:
  
                    RESTRICTED RIGHTS LEGEND
  
 Use, reproduction and disclosure by the US Government is
 subject to restrictions as set forth in subparagraphs (a)
 and (c) of the Commercial Computer Software - Restricted
 Rights clause in FAR 52.227-19.
  
 Gaussian, Inc.
 340 Quinnipiac St., Bldg. 40, Wallingford CT 06492
  
  
 ---------------------------------------------------------------
 Warning -- This program may not be used in any manner that
 competes with the business of Gaussian, Inc. or will provide
 assistance to any competitor of Gaussian, Inc.  The licensee
 of this program is prohibited from giving any competitor of
 Gaussian, Inc. access to this program.  By using this program,
 the user acknowledges that Gaussian, Inc. is engaged in the
 business of creating and licensing software in the field of
 computational chemistry and represents and warrants to the
 licensee that it is not a competitor of Gaussian, Inc. and that
 it will not use this program in any manner prohibited above.
 ---------------------------------------------------------------
  

 Cite this work as:
 Gaussian 09, Revision D.01,
 M. J. Frisch, G. W. Trucks, H. B. Schlegel, G. E. Scuseria, 
 M. A. Robb, J. R. Cheeseman, G. Scalmani, V. Barone, B. Mennucci, 
 G. A. Petersson, H. Nakatsuji, M. Caricato, X. Li, H. P. Hratchian, 
 A. F. Izmaylov, J. Bloino, G. Zheng, J. L. Sonnenberg, M. Hada, 
 M. Ehara, K. Toyota, R. Fukuda, J. Hasegawa, M. Ishida, T. Nakajima, 
 Y. Honda, O. Kitao, H. Nakai, T. Vreven, J. A. Montgomery, Jr., 
 J. E. Peralta, F. Ogliaro, M. Bearpark, J. J. Heyd, E. Brothers, 
 K. N. Kudin, V. N. Staroverov, T. Keith, R. Kobayashi, J. Normand, 
 K. Raghavachari, A. Rendell, J. C. Burant, S. S. Iyengar, J. Tomasi, 
 M. Cossi, N. Rega, J. M. Millam, M. Klene, J. E. Knox, J. B. Cross, 
 V. Bakken, C. Adamo, J. Jaramillo, R. Gomperts, R. E. Stratmann, 
 O. Yazyev, A. J. Austin, R. Cammi, C. Pomelli, J. W. Ochterski, 
 R. L. Martin, K. Morokuma, V. G. Zakrzewski, G. A. Voth, 
 P. Salvador, J. J. Dannenberg, S. Dapprich, A. D. Daniels, 
 O. Farkas, J. B. Foresman, J. V. Ortiz, J. Cioslowski, 
 and D. J. Fox, Gaussian, Inc., Wallingford CT, 2013.
 
 ******************************************
 Gaussian 09:  EM64L-G09RevD.01 24-Apr-2013
                27-May-2023 
 ******************************************
 %mem=400MW
 %chk=tmp
 %NProcShared= 32
 Will use up to   32 processors via shared memory.
 ----------------------------------------------------------------------
 # uwb97xd/aug-cc-pvtz opt=(noeig,intern,maxcyc=50) # int=ultrafine nos
 ym iop(7/33=1) guess=(mix,always)
 ----------------------------------------------------------------------
 1/6=50,10=7,11=1,14=-1,18=40,26=4,38=1/1,3;
 2/12=2,15=1,17=6,18=5,29=3,40=1/2;
 3/5=16,6=1,7=10,11=2,16=1,25=1,30=1,71=1,74=-58,75=-5,116=2/1,2,3;
 4/13=-1/1;
 5/5=2,38=5/2;
 6/7=2,8=2,9=2,10=2,28=1/1;
 7/29=1,30=1,33=1/1,2,3,16;
 1/6=50,10=7,11=1,14=-1,18=40,26=4/3(2);
 2/15=1,29=3/2;
 99//99;
 2/15=1,29=3/2;
 3/5=16,6=1,7=10,11=2,16=1,25=1,30=1,71=1,74=-58,75=-5,116=2/1,2,3;
 4/13=-1/1;
 5/5=2,38=5/2;
 7/30=1,33=1/1,2,3,16;
 1/6=50,11=1,14=-1,18=40,26=4/3(-5);
 2/15=1,29=3/2;
 6/7=2,8=2,9=2,10=2,19=2,28=1/1;
 99/9=1/99;
 ------
 geom 0
 ------
 Symbolic Z-matrix:
 Charge =  0 Multiplicity = 1
 C1
 H2                   C1   R1
 H3                   C1   R2       H2   A2
 H4                   C1   R3       H2   A3       H3   D3       0
 C21                  1    rts      2    aabs1    3    babs1    0
 H22                  C21  R21      1    aabs2    2    babs2    0
 H23                  C21  R22      H22  A22      1    babs3    0
 H24                  C21  R23      H22  A23      H23  D23      0
       Variables:
  BABS3               105.1655                   
  BABS2                60.0256                   
  AABS2                98.9997                   
  BABS1               105.2295                   
  AABS1                99.0091                   
       Constants:
  D3                  179.8076                   
  R21                   1.0782                   
  R22                   1.0782                   
  R23                   1.0782                   
  A22                 119.9721                   
  A23                 120.0207                   
  D23                 179.8076                   
  A3                  120.0207                   
  A2                  119.9721                   
  R3                    1.0782                   
  R2                    1.0782                   
  R1                    1.0782                   
  RTS                   2.6                      
 

 GradGradGradGradGradGradGradGradGradGradGradGradGradGradGradGradGradGrad
 Berny optimization.
 Initialization pass.
                       ----------------------------
                       !    Initial Parameters    !
                       ! (Angstroms and Degrees)  !
 ----------------------                            ----------------------
 !      Name          Value   Derivative information (Atomic Units)     !
 ------------------------------------------------------------------------
 !      BABS3      105.1655   estimate D2E/DX2                          !
 !      BABS2       60.0256   estimate D2E/DX2                          !
 !      AABS2       98.9997   estimate D2E/DX2                          !
 !      BABS1      105.2295   estimate D2E/DX2                          !
 !      AABS1       99.0091   estimate D2E/DX2                          !
 !       D3        179.8076   Frozen                                    !
 !       R21         1.0782   Frozen                                    !
 !       R22         1.0782   Frozen                                    !
 !       R23         1.0782   Frozen                                    !
 !       A22       119.9721   Frozen                                    !
 !       A23       120.0207   Frozen                                    !
 !       D23       179.8076   Frozen                                    !
 !       A3        120.0207   Frozen                                    !
 !       A2        119.9721   Frozen                                    !
 !       R3          1.0782   Frozen                                    !
 !       R2          1.0782   Frozen                                    !
 !       R1          1.0782   Frozen                                    !
 !       RTS         2.6      Frozen                                    !
 ------------------------------------------------------------------------
 Trust Radius=3.00D-01 FncErr=1.00D-07 GrdErr=1.00D-06
 Number of steps in this run=     50 maximum allowed number of steps=    100.
 GradGradGradGradGradGradGradGradGradGradGradGradGradGradGradGradGradGrad

 ---------------------------------------------------------------------------------------------------
                            Z-MATRIX (ANGSTROMS AND DEGREES)
   CD    Cent   Atom    N1       Length/X        N2       Alpha/Y        N3        Beta/Z          J
 ---------------------------------------------------------------------------------------------------
      1      1  C 
      2      2  H        1   1.078200(     1)
      3      3  H        1   1.078200(     2)      2  119.972(     8)
      4      4  H        1   1.078200(     3)      2  120.021(     9)      3  179.808(    14)      0
      5      5  C        1   2.600000(     4)      2   99.009(    10)      3  105.230(    15)      0
      6      6  H        5   1.078200(     5)      1   99.000(    11)      2   60.026(    16)      0
      7      7  H        5   1.078200(     6)      6  119.972(    12)      1  105.165(    17)      0
      8      8  H        5   1.078200(     7)      6  120.021(    13)      7  179.808(    18)      0
 ---------------------------------------------------------------------------------------------------
                         Z-Matrix orientation:                         
 ---------------------------------------------------------------------
 Center     Atomic      Atomic             Coordinates (Angstroms)
 Number     Number       Type             X           Y           Z
 ---------------------------------------------------------------------
      1          6           0        0.000000    0.000000    0.000000
      2          1           0        0.000000    0.000000    1.078200
      3          1           0        0.934011    0.000000   -0.538645
      4          1           0       -0.933548   -0.003135   -0.539437
      5          6           0       -0.674558   -2.477743   -0.407137
      6          1           0       -1.630297   -2.476537    0.091939
      7          1           0        0.175481   -2.950447    0.058158
      8          1           0       -0.569514   -2.009183   -1.372504
 ---------------------------------------------------------------------
                    Distance matrix (angstroms):
                    1          2          3          4          5
     1  C    0.000000
     2  H    1.078200   0.000000
     3  H    1.078200   1.867235   0.000000
     4  H    1.078200   1.867692   1.867562   0.000000
     5  C    2.600000   2.966558   2.957025   2.491639   0.000000
     6  H    2.966405   3.124711   3.620297   2.646094   1.078200
     7  H    2.956233   3.126727   3.104300   3.205264   1.078200
     8  H    2.498986   3.219800   2.644376   2.202442   1.078200
                    6          7          8
     6  H    0.000000
     7  H    1.867235   0.000000
     8  H    1.867692   1.867562   0.000000
 Symmetry turned off by external request.
 Stoichiometry    C2H6
 Framework group  C1[X(C2H6)]
 Deg. of freedom    18
 Full point group                 C1      NOp   1
 Rotational constants (GHZ):     75.4025869      9.2932065      9.2669690
 Standard basis: Aug-CC-pVTZ (5D, 7F)
   230 basis functions,   306 primitive gaussians,   260 cartesian basis functions
     9 alpha electrons        9 beta electrons
       nuclear repulsion energy        35.1541857506 Hartrees.
 NAtoms=    8 NActive=    8 NUniq=    8 SFac= 1.00D+00 NAtFMM=   60 NAOKFM=F Big=F
 Integral buffers will be    131072 words long.
 Raffenetti 2 integral format.
 Two-electron integral symmetry is turned off.
 Nuclear repulsion after empirical dispersion term =       35.1519214350 Hartrees.
 One-electron integrals computed using PRISM.
 NBasis=   230 RedAO= T EigKep=  5.11D-05  NBF=   230
 NBsUse=   230 1.00D-06 EigRej= -1.00D+00 NBFU=   230
 ExpMin= 2.53D-02 ExpMax= 8.24D+03 ExpMxC= 2.81D+02 IAcc=3 IRadAn=         5 AccDes= 0.00D+00
 Harris functional with IExCor= 4639 and IRadAn=       5 diagonalized for initial guess.
 HarFok:  IExCor= 4639 AccDes= 0.00D+00 IRadAn=         5 IDoV= 1 UseB2=F ITyADJ=14
 ICtDFT=  3500011 ScaDFX=  1.000000  1.000000  1.000000  1.000000
 FoFCou: FMM=F IPFlag=           0 FMFlag=      100000 FMFlg1=           0
         NFxFlg=           0 DoJE=T BraDBF=F KetDBF=T FulRan=T
         wScrn=  0.000000 ICntrl=     500 IOpCl=  0 I1Cent=   200000004 NGrid=           0
         NMat0=    1 NMatS0=      1 NMatT0=    0 NMatD0=    1 NMtDS0=    0 NMtDT0=    0
 Symmetry not used in FoFCou.
 Mixing orbitals, IMix= 1 IMixAn=  0 NRI=1 NE=    9 Coef=  7.07106781D-01  7.07106781D-01
 Mixing orbitals, IMix= 1 IMixAn=  0 NRI=1 NE=    9 Coef= -7.07106781D-01  7.07106781D-01
 Initial guess <Sx>= 0.0000 <Sy>= 0.0000 <Sz>= 0.0000 <S**2>= 1.0000 S= 0.6180
 Requested convergence on RMS density matrix=1.00D-08 within 128 cycles.
 Requested convergence on MAX density matrix=1.00D-06.
 Requested convergence on             energy=1.00D-06.
 No special actions if energy rises.
 SCF Done:  E(UwB97XD) =  -79.6925376789     A.U. after   13 cycles
            NFock= 13  Conv=0.53D-08     -V/T= 2.0078
 <Sx>= 0.0000 <Sy>= 0.0000 <Sz>= 0.0000 <S**2>= 0.5974 S= 0.4206
 <L.S>=  0.00000000000    
 Annihilation of the first spin contaminant:
 S**2 before annihilation     0.5974,   after     0.0176

 **********************************************************************

            Population analysis using the SCF density.

 **********************************************************************

 Alpha  occ. eigenvalues --  -10.29708 -10.28848  -0.78794  -0.73889  -0.51678
 Alpha  occ. eigenvalues --   -0.51052  -0.49186  -0.48408  -0.30557
 Alpha virt. eigenvalues --    0.01629   0.03296   0.04607   0.04728   0.05761
 Alpha virt. eigenvalues --    0.06947   0.07277   0.10802   0.11786   0.12234
 Alpha virt. eigenvalues --    0.13075   0.14166   0.14363   0.15126   0.16535
 Alpha virt. eigenvalues --    0.19503   0.19849   0.22409   0.22750   0.24077
 Alpha virt. eigenvalues --    0.24677   0.28952   0.29923   0.30951   0.31182
 Alpha virt. eigenvalues --    0.31968   0.34287   0.34981   0.35500   0.36076
 Alpha virt. eigenvalues --    0.36993   0.37060   0.37478   0.38687   0.39687
 Alpha virt. eigenvalues --    0.40539   0.40565   0.40817   0.41472   0.42258
 Alpha virt. eigenvalues --    0.42287   0.42789   0.44976   0.45729   0.46020
 Alpha virt. eigenvalues --    0.48014   0.49604   0.50489   0.52241   0.60116
 Alpha virt. eigenvalues --    0.66426   0.69848   0.71038   0.71201   0.72546
 Alpha virt. eigenvalues --    0.72773   0.74206   0.75024   0.78026   0.78455
 Alpha virt. eigenvalues --    0.79684   0.81285   0.81787   0.81994   0.83426
 Alpha virt. eigenvalues --    0.84030   0.85570   0.86814   0.87888   0.91337
 Alpha virt. eigenvalues --    0.91884   0.92249   0.93581   0.94690   0.96711
 Alpha virt. eigenvalues --    0.99024   1.01502   1.03837   1.05466   1.05569
 Alpha virt. eigenvalues --    1.07178   1.07298   1.08755   1.09302   1.11954
 Alpha virt. eigenvalues --    1.13401   1.13624   1.14526   1.16188   1.17481
 Alpha virt. eigenvalues --    1.21150   1.23396   1.26525   1.26637   1.30848
 Alpha virt. eigenvalues --    1.31794   1.40090   1.42373   1.43478   1.44538
 Alpha virt. eigenvalues --    1.45897   1.47400   1.50061   1.51689   1.51809
 Alpha virt. eigenvalues --    1.52223   1.53646   1.54300   1.54778   1.55961
 Alpha virt. eigenvalues --    1.57537   1.58217   1.62286   1.63532   1.69217
 Alpha virt. eigenvalues --    1.69911   1.73269   1.77716   1.78993   1.81530
 Alpha virt. eigenvalues --    1.81864   1.82645   1.84076   1.95255   2.00510
 Alpha virt. eigenvalues --    2.01825   2.02558   2.05011   2.06272   2.08525
 Alpha virt. eigenvalues --    2.10869   2.11953   2.13186   2.15277   2.27759
 Alpha virt. eigenvalues --    2.83018   2.86954   2.88803   2.90806   2.94939
 Alpha virt. eigenvalues --    2.99900   3.02271   3.04544   3.10341   3.11773
 Alpha virt. eigenvalues --    3.28670   3.30326   3.33575   3.35757   3.36800
 Alpha virt. eigenvalues --    3.39003   3.41641   3.42567   3.43395   3.44354
 Alpha virt. eigenvalues --    3.44806   3.46067   3.48008   3.51900   3.57148
 Alpha virt. eigenvalues --    3.57455   3.63429   3.70413   3.70874   3.74851
 Alpha virt. eigenvalues --    3.75625   3.76441   3.77984   3.78452   3.81351
 Alpha virt. eigenvalues --    3.85514   3.86824   4.02332   4.03327   4.06236
 Alpha virt. eigenvalues --    4.11144   4.14572   4.16292   4.18282   4.19692
 Alpha virt. eigenvalues --    4.22661   4.23262   4.25497   4.56372   4.57543
 Alpha virt. eigenvalues --    4.60276   4.61050   4.61153   4.62247   4.64475
 Alpha virt. eigenvalues --    4.67052   4.67926   4.79521   4.80132   4.84717
 Alpha virt. eigenvalues --    4.87234   4.92341   5.04010   5.06038   5.06896
 Alpha virt. eigenvalues --    5.09986   5.12857   5.13409   5.16156   5.18079
 Alpha virt. eigenvalues --    5.19229   5.22607   5.23698   5.29956   5.32001
 Alpha virt. eigenvalues --    5.47457   6.08623   6.13368   6.25180   6.26792
 Alpha virt. eigenvalues --    6.27003   6.31878   6.41175   6.44927  16.08927
 Alpha virt. eigenvalues --   16.61506
  Beta  occ. eigenvalues --  -10.29714 -10.28843  -0.78800  -0.73884  -0.51681
  Beta  occ. eigenvalues --   -0.51056  -0.49183  -0.48408  -0.30555
  Beta virt. eigenvalues --    0.01627   0.03296   0.04607   0.04729   0.05762
  Beta virt. eigenvalues --    0.06947   0.07277   0.10806   0.11786   0.12234
  Beta virt. eigenvalues --    0.13073   0.14165   0.14366   0.15128   0.16537
  Beta virt. eigenvalues --    0.19503   0.19849   0.22410   0.22746   0.24086
  Beta virt. eigenvalues --    0.24675   0.28932   0.29942   0.30959   0.31173
  Beta virt. eigenvalues --    0.31968   0.34285   0.34976   0.35497   0.36078
  Beta virt. eigenvalues --    0.36988   0.37086   0.37461   0.38688   0.39684
  Beta virt. eigenvalues --    0.40533   0.40568   0.40811   0.41477   0.42249
  Beta virt. eigenvalues --    0.42294   0.42790   0.44976   0.45727   0.46029
  Beta virt. eigenvalues --    0.48009   0.49606   0.50493   0.52241   0.60109
  Beta virt. eigenvalues --    0.66418   0.69874   0.71035   0.71203   0.72553
  Beta virt. eigenvalues --    0.72761   0.74149   0.75062   0.78046   0.78450
  Beta virt. eigenvalues --    0.79678   0.81280   0.81804   0.81978   0.83407
  Beta virt. eigenvalues --    0.84034   0.85590   0.86790   0.87899   0.91298
  Beta virt. eigenvalues --    0.91924   0.92244   0.93580   0.94699   0.96715
  Beta virt. eigenvalues --    0.99013   1.01514   1.03842   1.05436   1.05596
  Beta virt. eigenvalues --    1.07116   1.07375   1.08736   1.09295   1.11960
  Beta virt. eigenvalues --    1.13400   1.13619   1.14521   1.16183   1.17477
  Beta virt. eigenvalues --    1.21164   1.23393   1.26427   1.26744   1.30843
  Beta virt. eigenvalues --    1.31801   1.40086   1.42351   1.43470   1.44553
  Beta virt. eigenvalues --    1.45889   1.47410   1.50063   1.51695   1.51817
  Beta virt. eigenvalues --    1.52206   1.53650   1.54272   1.54795   1.55966
  Beta virt. eigenvalues --    1.57520   1.58234   1.62249   1.63550   1.69220
  Beta virt. eigenvalues --    1.69909   1.73274   1.77808   1.78952   1.81523
  Beta virt. eigenvalues --    1.81861   1.82632   1.84069   1.95278   2.00471
  Beta virt. eigenvalues --    2.01772   2.02634   2.04998   2.06275   2.08520
  Beta virt. eigenvalues --    2.10859   2.11952   2.13180   2.15289   2.27757
  Beta virt. eigenvalues --    2.82918   2.87093   2.88890   2.90727   2.94975
  Beta virt. eigenvalues --    2.99872   3.02217   3.04605   3.10338   3.11739
  Beta virt. eigenvalues --    3.28660   3.30298   3.33656   3.35685   3.36800
  Beta virt. eigenvalues --    3.38976   3.41674   3.42568   3.43429   3.44386
  Beta virt. eigenvalues --    3.44814   3.46024   3.48023   3.51904   3.57207
  Beta virt. eigenvalues --    3.57387   3.63439   3.70450   3.70831   3.74834
  Beta virt. eigenvalues --    3.75631   3.76436   3.78033   3.78409   3.81352
  Beta virt. eigenvalues --    3.85528   3.86785   4.02497   4.03162   4.06210
  Beta virt. eigenvalues --    4.11132   4.14588   4.16294   4.18300   4.19693
  Beta virt. eigenvalues --    4.22683   4.23249   4.25485   4.56367   4.57558
  Beta virt. eigenvalues --    4.60276   4.61043   4.61143   4.62246   4.64467
  Beta virt. eigenvalues --    4.67056   4.67939   4.79636   4.80002   4.84671
  Beta virt. eigenvalues --    4.87284   4.92342   5.04008   5.06010   5.06924
  Beta virt. eigenvalues --    5.09994   5.12957   5.13429   5.16027   5.18087
  Beta virt. eigenvalues --    5.19210   5.22612   5.23695   5.29936   5.32036
  Beta virt. eigenvalues --    5.47458   6.08637   6.13356   6.25185   6.26826
  Beta virt. eigenvalues --    6.26961   6.31878   6.41185   6.44917  16.08923
  Beta virt. eigenvalues --   16.61509
          Condensed to atoms (all electrons):
               1          2          3          4          5          6
     1  C    6.005340   0.348047   0.341702   0.317412   0.066591  -0.000738
     2  H    0.348047   0.279966   0.011120   0.010680  -0.003557  -0.000722
     3  H    0.341702   0.011120   0.275493   0.010533  -0.000529  -0.000887
     4  H    0.317412   0.010680   0.010533   0.287027   0.010027  -0.000458
     5  C    0.066591  -0.003557  -0.000529   0.010027   6.004640   0.342565
     6  H   -0.000738  -0.000722  -0.000887  -0.000458   0.342565   0.275183
     7  H   -0.003634  -0.000569  -0.000742  -0.000920   0.347341   0.011204
     8  H    0.009742  -0.000894  -0.000433   0.001009   0.317520   0.010490
               7          8
     1  C   -0.003634   0.009742
     2  H   -0.000569  -0.000894
     3  H   -0.000742  -0.000433
     4  H   -0.000920   0.001009
     5  C    0.347341   0.317520
     6  H    0.011204   0.010490
     7  H    0.280151   0.010715
     8  H    0.010715   0.286972
          Atomic-Atomic Spin Densities.
               1          2          3          4          5          6
     1  C    0.837661   0.003199   0.001347  -0.003328   0.000391  -0.004523
     2  H    0.003199  -0.028406   0.001065   0.002151   0.007802   0.000531
     3  H    0.001347   0.001065  -0.024554   0.003446   0.004564  -0.000008
     4  H   -0.003328   0.002151   0.003446  -0.019993  -0.000703  -0.000585
     5  C    0.000391   0.007802   0.004564  -0.000703  -0.838410  -0.001360
     6  H   -0.004523   0.000531  -0.000008  -0.000585  -0.001360   0.024556
     7  H   -0.007909   0.000002  -0.000557  -0.001237  -0.003291  -0.001052
     8  H    0.000857   0.001216   0.000587   0.000030   0.003214  -0.003412
               7          8
     1  C   -0.007909   0.000857
     2  H    0.000002   0.001216
     3  H   -0.000557   0.000587
     4  H   -0.001237   0.000030
     5  C   -0.003291   0.003214
     6  H   -0.001052  -0.003412
     7  H    0.028578  -0.002194
     8  H   -0.002194   0.020083
 Mulliken charges and spin densities:
               1          2
     1  C   -1.084463   0.827693
     2  H    0.355930  -0.012439
     3  H    0.363744  -0.014109
     4  H    0.364691  -0.020220
     5  C   -1.084599  -0.827793
     6  H    0.363362   0.014147
     7  H    0.356454   0.012340
     8  H    0.364880   0.020381
 Sum of Mulliken charges =  -0.00000  -0.00000
 Mulliken charges and spin densities with hydrogens summed into heavy atoms:
               1          2
     1  C   -0.000097   0.780924
     5  C    0.000097  -0.780924
 Electronic spatial extent (au):  <R**2>=            277.2618
 Charge=             -0.0000 electrons
 Dipole moment (field-independent basis, Debye):
    X=              0.0031    Y=             -0.0064    Z=              0.0054  Tot=              0.0089
 Quadrupole moment (field-independent basis, Debye-Ang):
   XX=            -14.5001   YY=            -17.7432   ZZ=            -14.8755
   XY=             -0.2894   XZ=             -0.2308   YZ=             -0.7621
 Traceless Quadrupole moment (field-independent basis, Debye-Ang):
   XX=              1.2062   YY=             -2.0369   ZZ=              0.8307
   XY=             -0.2894   XZ=             -0.2308   YZ=             -0.7621
 Octapole moment (field-independent basis, Debye-Ang**2):
  XXX=             14.5132  YYY=             63.8917  ZZZ=              9.6355  XYY=              7.8527
  XXY=             18.2527  XXZ=              3.1161  XZZ=              5.4016  YZZ=             19.9801
  YYZ=              7.3610  XYZ=              1.0055
 Hexadecapole moment (field-independent basis, Debye-Ang**3):
 XXXX=            -49.0066 YYYY=           -341.3687 ZZZZ=            -36.4654 XXXY=            -35.7469
 XXXZ=             -7.7894 YYYX=            -50.8039 YYYZ=            -38.9704 ZZZX=             -6.0652
 ZZZY=            -22.2115 XXYY=            -59.6711 XXZZ=            -15.5553 YYZZ=            -62.8356
 XXYZ=            -10.0401 YYXZ=             -5.7834 ZZXY=            -13.7860
 N-N= 3.515192143504D+01 E-N=-2.540774730542D+02  KE= 7.907430644594D+01
                          Isotropic Fermi Contact Couplings
        Atom                 a.u.       MegaHertz       Gauss      10(-4) cm-1
     1  C(13)             -0.00170      -0.95460      -0.34062      -0.31842
     2  H(1)              -0.01169     -26.13234      -9.32467      -8.71681
     3  H(1)              -0.01127     -25.19411      -8.98989      -8.40385
     4  H(1)              -0.01321     -29.52857     -10.53653      -9.84967
     5  C(13)              0.00126       0.70638       0.25206       0.23562
     6  H(1)               0.01126      25.17298       8.98235       8.39680
     7  H(1)               0.01176      26.27189       9.37446       8.76336
     8  H(1)               0.01315      29.39904      10.49031       9.80646
 --------------------------------------------------------
       Center         ----  Spin Dipole Couplings  ----
                      3XX-RR        3YY-RR        3ZZ-RR
 --------------------------------------------------------
     1   Atom       -0.449727      0.895602     -0.445875
     2   Atom       -0.056632     -0.003275      0.059906
     3   Atom        0.028805     -0.002924     -0.025881
     4   Atom        0.036038     -0.013311     -0.022727
     5   Atom        0.372882     -0.566671      0.193789
     6   Atom       -0.037375      0.017968      0.019407
     7   Atom       -0.022538      0.000205      0.022334
     8   Atom        0.048950      0.001227     -0.050177
 --------------------------------------------------------
                        XY            XZ            YZ
 --------------------------------------------------------
     1   Atom        0.007895     -0.001713      0.009368
     2   Atom       -0.002326     -0.002575     -0.005485
     3   Atom       -0.005125     -0.051495      0.000810
     4   Atom       -0.001101      0.050334      0.000163
     5   Atom       -0.271205     -0.137622     -0.510184
     6   Atom       -0.006544      0.041978     -0.023989
     7   Atom        0.027764     -0.046601     -0.001827
     8   Atom       -0.012078      0.006725      0.029756
 --------------------------------------------------------


 ---------------------------------------------------------------------------------
              Anisotropic Spin Dipole Couplings in Principal Axis System
 ---------------------------------------------------------------------------------

       Atom             a.u.   MegaHertz   Gauss  10(-4) cm-1        Axes

              Baa    -0.4505   -60.448   -21.569   -20.163  0.9314 -0.0080  0.3639
     1 C(13)  Bbb    -0.4452   -59.748   -21.320   -19.930 -0.3640 -0.0044  0.9314
              Bcc     0.8957   120.196    42.889    40.093  0.0059  1.0000  0.0070
 
              Baa    -0.0568   -30.306   -10.814   -10.109  0.9987  0.0459  0.0242
     2 H(1)   Bbb    -0.0036    -1.935    -0.690    -0.645 -0.0478  0.9953  0.0840
              Bcc     0.0604    32.241    11.504    10.754 -0.0202 -0.0850  0.9962
 
              Baa    -0.0569   -30.366   -10.835   -10.129  0.5162  0.0362  0.8557
     3 H(1)   Bbb    -0.0032    -1.718    -0.613    -0.573  0.0466  0.9964 -0.0702
              Bcc     0.0601    32.084    11.448    10.702  0.8552 -0.0761 -0.5127
 
              Baa    -0.0516   -27.552    -9.831    -9.190 -0.4980 -0.0180  0.8670
     4 H(1)   Bbb    -0.0133    -7.101    -2.534    -2.368  0.0007  0.9998  0.0212
              Bcc     0.0649    34.653    12.365    11.559  0.8672 -0.0112  0.4978
 
              Baa    -0.8956  -120.186   -42.885   -40.090  0.2331  0.8690  0.4364
     5 C(13)  Bbb     0.4454    59.769    21.327    19.937  0.9327 -0.3268  0.1525
              Bcc     0.4502    60.417    21.558    20.153 -0.2751 -0.3715  0.8867
 
              Baa    -0.0601   -32.053   -11.437   -10.692  0.8721 -0.0755 -0.4834
     6 H(1)   Bbb     0.0032     1.692     0.604     0.564  0.3141  0.8439  0.4349
              Bcc     0.0569    30.362    10.834    10.128  0.3751 -0.5311  0.7597
 
              Baa    -0.0605   -32.293   -11.523   -10.772  0.8166 -0.3598  0.4513
     7 H(1)   Bbb     0.0038     2.013     0.718     0.671  0.1429  0.8837  0.4458
              Bcc     0.0568    30.280    10.805    10.100 -0.5592 -0.2995  0.7730
 
              Baa    -0.0649   -34.624   -12.355   -11.549 -0.0981 -0.4233  0.9007
     8 H(1)   Bbb     0.0131     6.967     2.486     2.324  0.2131  0.8751  0.4345
              Bcc     0.0518    27.656     9.868     9.225  0.9721 -0.2345 -0.0043
 

 ---------------------------------------------------------------------------------

 DipInt: DoE/N= T T RetVal/Mat= T F Init=T NMatP=  1 IDeriv=0 Min/MaxMlt=  1  1
 Entering OneElI...
 Multipole integrals L=1 to 1 MinM= 0 MaxM= 0.
 Requested accuracy = 0.1000D-12
 PrsmSu:  NPrtUS=   1 ThrOK=F IAlg=1 NPAlg=1 LenDen=           0.
 Prism:   IPart=     0 DynPar=F LinDyn=F Incr=          34.
 PRISM was handed   419148681 working-precision words and  3402 shell-pairs
 IPart=  0 NShTot=        3402 NBatch=          46 AvBLen=        74.0
 PrSmSu:  NxtVal=             35.
 Entering OneElI...
 Calculate overlap and kinetic energy integrals
    NBasis = 260  MinDer = 1  MaxDer = 1
 Requested accuracy = 0.1000D-12
 PrsmSu:  NPrtUS=  32 ThrOK=T IAlg=1 NPAlg=1 LenDen=           0.
 Prism:   IPart=     0 DynPar=F LinDyn=F Incr=           1.
 PRISM was handed    13041620 working-precision words and  3403 shell-pairs
 PRISM was handed    13041620 working-precision words and  3403 shell-pairs
 PRISM was handed    13041620 working-precision words and  3403 shell-pairs
 PRISM was handed    13041620 working-precision words and  3403 shell-pairs
 PRISM was handed    13041620 working-precision words and  3403 shell-pairs
 PRISM was handed    13041620 working-precision words and  3403 shell-pairs
 PRISM was handed    13041620 working-precision words and  3403 shell-pairs
 PRISM was handed    13041620 working-precision words and  3403 shell-pairs
 PRISM was handed    13041620 working-precision words and  3403 shell-pairs
 PRISM was handed    13041620 working-precision words and  3403 shell-pairs
 PRISM was handed    13041620 working-precision words and  3403 shell-pairs
 PRISM was handed    13041620 working-precision words and  3403 shell-pairs
 PRISM was handed    13041620 working-precision words and  3403 shell-pairs
 PRISM was handed    13041620 working-precision words and  3403 shell-pairs
 PRISM was handed    13041620 working-precision words and  3403 shell-pairs
 PRISM was handed    13041620 working-precision words and  3403 shell-pairs
 PRISM was handed    13041620 working-precision words and  3403 shell-pairs
 PRISM was handed    13041620 working-precision words and  3403 shell-pairs
 PRISM was handed    13041620 working-precision words and  3403 shell-pairs
 PRISM was handed    13041620 working-precision words and  3403 shell-pairs
 PRISM was handed    13041620 working-precision words and  3403 shell-pairs
 PRISM was handed    13041620 working-precision words and  3403 shell-pairs
 PRISM was handed    13041620 working-precision words and  3403 shell-pairs
 PRISM was handed    13041620 working-precision words and  3403 shell-pairs
 PRISM was handed    13041620 working-precision words and  3403 shell-pairs
 PRISM was handed    13041620 working-precision words and  3403 shell-pairs
 PRISM was handed    13041620 working-precision words and  3403 shell-pairs
 PRISM was handed    13041620 working-precision words and  3403 shell-pairs
 PRISM was handed    13041620 working-precision words and  3403 shell-pairs
 PRISM was handed    13041620 working-precision words and  3403 shell-pairs
 PRISM was handed    13041620 working-precision words and  3403 shell-pairs
 PRISM was handed    13041620 working-precision words and  3403 shell-pairs
 IPart=  0 NShTot=         134 NBatch=          42 AvBLen=         3.2
 IPart= 31 NShTot=          96 NBatch=          20 AvBLen=         4.8
 IPart=  2 NShTot=         124 NBatch=          32 AvBLen=         3.9
 IPart= 14 NShTot=         105 NBatch=          21 AvBLen=         5.0
 IPart= 12 NShTot=         105 NBatch=          21 AvBLen=         5.0
 IPart= 16 NShTot=         101 NBatch=          21 AvBLen=         4.8
 IPart=  9 NShTot=         111 NBatch=          23 AvBLen=         4.8
 IPart= 25 NShTot=          96 NBatch=          20 AvBLen=         4.8
 IPart=  6 NShTot=         118 NBatch=          29 AvBLen=         4.1
 IPart=  8 NShTot=         111 NBatch=          23 AvBLen=         4.8
 IPart= 24 NShTot=          96 NBatch=          20 AvBLen=         4.8
 IPart= 10 NShTot=         110 NBatch=          22 AvBLen=         5.0
 IPart= 18 NShTot=          98 NBatch=          21 AvBLen=         4.7
 IPart= 29 NShTot=          96 NBatch=          20 AvBLen=         4.8
 IPart= 27 NShTot=          96 NBatch=          20 AvBLen=         4.8
 IPart=  3 NShTot=         124 NBatch=          32 AvBLen=         3.9
 IPart= 30 NShTot=          96 NBatch=          20 AvBLen=         4.8
 IPart= 11 NShTot=         109 NBatch=          22 AvBLen=         5.0
 IPart= 19 NShTot=          98 NBatch=          21 AvBLen=         4.7
 IPart=  1 NShTot=         132 NBatch=          40 AvBLen=         3.3
 IPart= 28 NShTot=          96 NBatch=          20 AvBLen=         4.8
 IPart=  4 NShTot=         120 NBatch=          31 AvBLen=         3.9
 IPart= 21 NShTot=          97 NBatch=          21 AvBLen=         4.6
 IPart= 23 NShTot=          97 NBatch=          21 AvBLen=         4.6
 IPart= 15 NShTot=         105 NBatch=          21 AvBLen=         5.0
 IPart= 22 NShTot=          97 NBatch=          21 AvBLen=         4.6
 IPart= 20 NShTot=          97 NBatch=          21 AvBLen=         4.6
 IPart=  5 NShTot=         120 NBatch=          31 AvBLen=         3.9
 IPart=  7 NShTot=         118 NBatch=          29 AvBLen=         4.1
 IPart= 13 NShTot=         105 NBatch=          21 AvBLen=         5.0
 IPart= 17 NShTot=          99 NBatch=          21 AvBLen=         4.7
 IPart= 26 NShTot=          96 NBatch=          20 AvBLen=         4.8
 PrSmSu:  NxtVal=             33.
 Entering OneElI...
 Calculate potential energy integrals
    NBasis = 260  MinDer = 1  MaxDer = 1
 Requested accuracy = 0.1000D-12
 PrsmSu:  NPrtUS=  32 ThrOK=T IAlg=1 NPAlg=1 LenDen=           0.
 Prism:   IPart=     0 DynPar=F LinDyn=F Incr=           8.
 PRISM was handed    13046453 working-precision words and  3390 shell-pairs
 PRISM was handed    13046453 working-precision words and  3390 shell-pairs
 PRISM was handed    13046453 working-precision words and  3390 shell-pairs
 PRISM was handed    13046453 working-precision words and  3390 shell-pairs
 PRISM was handed    13046453 working-precision words and  3390 shell-pairs
 PRISM was handed    13046453 working-precision words and  3390 shell-pairs
 PRISM was handed    13046453 working-precision words and  3390 shell-pairs
 PRISM was handed    13046453 working-precision words and  3390 shell-pairs
 PRISM was handed    13046453 working-precision words and  3390 shell-pairs
 PRISM was handed    13046453 working-precision words and  3390 shell-pairs
 PRISM was handed    13046453 working-precision words and  3390 shell-pairs
 PRISM was handed    13046453 working-precision words and  3390 shell-pairs
 PRISM was handed    13046453 working-precision words and  3390 shell-pairs
 PRISM was handed    13046453 working-precision words and  3390 shell-pairs
 PRISM was handed    13046453 working-precision words and  3390 shell-pairs
 PRISM was handed    13046453 working-precision words and  3390 shell-pairs
 PRISM was handed    13046453 working-precision words and  3390 shell-pairs
 PRISM was handed    13046453 working-precision words and  3390 shell-pairs
 PRISM was handed    13046453 working-precision words and  3390 shell-pairs
 PRISM was handed    13046453 working-precision words and  3390 shell-pairs
 PRISM was handed    13046453 working-precision words and  3390 shell-pairs
 PRISM was handed    13046453 working-precision words and  3390 shell-pairs
 PRISM was handed    13046453 working-precision words and  3390 shell-pairs
 PRISM was handed    13046453 working-precision words and  3390 shell-pairs
 PRISM was handed    13046453 working-precision words and  3390 shell-pairs
 PRISM was handed    13046453 working-precision words and  3390 shell-pairs
 PRISM was handed    13046453 working-precision words and  3390 shell-pairs
 PRISM was handed    13046453 working-precision words and  3390 shell-pairs
 PRISM was handed    13046453 working-precision words and  3390 shell-pairs
 PRISM was handed    13046453 working-precision words and  3390 shell-pairs
 PRISM was handed    13046453 working-precision words and  3390 shell-pairs
 PRISM was handed    13046453 working-precision words and  3390 shell-pairs
 IPart=  2 NShTot=         984 NBatch=         123 AvBLen=         8.0
 IPart= 18 NShTot=         784 NBatch=          98 AvBLen=         8.0
 IPart= 25 NShTot=         768 NBatch=          96 AvBLen=         8.0
 IPart= 23 NShTot=         776 NBatch=          97 AvBLen=         8.0
 IPart= 10 NShTot=         880 NBatch=         110 AvBLen=         8.0
 IPart= 29 NShTot=         752 NBatch=          94 AvBLen=         8.0
 IPart= 27 NShTot=         768 NBatch=          96 AvBLen=         8.0
 IPart= 16 NShTot=         824 NBatch=         103 AvBLen=         8.0
 IPart=  1 NShTot=        1048 NBatch=         131 AvBLen=         8.0
 IPart=  4 NShTot=         968 NBatch=         121 AvBLen=         8.0
 IPart= 14 NShTot=         840 NBatch=         105 AvBLen=         8.0
 IPart= 31 NShTot=         744 NBatch=          93 AvBLen=         8.0
 IPart= 12 NShTot=         848 NBatch=         106 AvBLen=         8.0
 IPart=  6 NShTot=         928 NBatch=         116 AvBLen=         8.0
 IPart= 30 NShTot=         744 NBatch=          93 AvBLen=         8.0
 IPart=  9 NShTot=         888 NBatch=         111 AvBLen=         8.0
 IPart= 24 NShTot=         768 NBatch=          96 AvBLen=         8.0
 IPart= 28 NShTot=         760 NBatch=          95 AvBLen=         8.0
 IPart=  3 NShTot=         984 NBatch=         123 AvBLen=         8.0
 IPart= 11 NShTot=         856 NBatch=         107 AvBLen=         8.0
 IPart=  8 NShTot=         888 NBatch=         111 AvBLen=         8.0
 IPart= 21 NShTot=         776 NBatch=          97 AvBLen=         8.0
 IPart= 15 NShTot=         832 NBatch=         104 AvBLen=         8.0
 IPart= 22 NShTot=         776 NBatch=          97 AvBLen=         8.0
 IPart= 20 NShTot=         776 NBatch=          97 AvBLen=         8.0
 IPart=  5 NShTot=         968 NBatch=         121 AvBLen=         8.0
 IPart= 26 NShTot=         768 NBatch=          96 AvBLen=         8.0
 IPart=  7 NShTot=         920 NBatch=         115 AvBLen=         8.0
 IPart= 13 NShTot=         840 NBatch=         105 AvBLen=         8.0
 IPart= 17 NShTot=         816 NBatch=         102 AvBLen=         8.0
 IPart=  0 NShTot=        1064 NBatch=         133 AvBLen=         8.0
 IPart= 19 NShTot=         784 NBatch=          98 AvBLen=         8.0
 PrSmSu:  NxtVal=            257.
 l701 out
 I=    0 X=   1.204271368332D-03 Y=  -2.521657537989D-03 Z=   2.131636721830D-03
 I=    1 X=   6.749745670874D-01 Y=   2.152591926827D+00 Z=   3.449702028794D-01
 I=    2 X=   7.373806946121D-02 Y=   2.146979899547D-01 Z=   3.052877231108D+00
 I=    3 X=   2.690653284235D+00 Y=   2.871692041736D-01 Z=  -1.453784813079D+00
 I=    4 X=  -2.527292981170D+00 Y=   4.338947712047D-01 Z=  -1.473359249892D+00
 I=    5 X=  -6.399353189219D-01 Y=  -2.156384664972D+00 Z=  -2.842343369016D-01
 I=    6 X=  -2.748029904390D+00 Y=  -2.834463345494D-01 Z=   1.351780033917D+00
 I=    7 X=   2.311698962555D+00 Y=  -1.542721107568D+00 Z=   1.279048718665D+00
 I=    8 X=   1.641933211438D-01 Y=   8.941982149294D-01 Z=  -2.817297786696D+00
 ICntrl=      2127.
 Calling FoFJK, ICntrl=      2127 FMM=F ISym2X=0 I1Cent= 0 IOpClX= 1 NMat=1 NMatS=1 NMatT=0.
 FoFJK:  IHMeth= 1 ICntrl=    2127 DoSepK=T KAlg= 0 I1Cent=   0 FoldK=F
 IRaf=         1 NMat=   1 IRICut=       1 DoRegI=T DoRafI=F ISym2E= 0.
 FoFCou: FMM=F IPFlag=           0 FMFlag=      100000 FMFlg1=         800
         NFxFlg=           0 DoJE=F BraDBF=F KetDBF=F FulRan=T
         wScrn=  0.000000 ICntrl=    2527 IOpCl=  0 I1Cent=           0 NGrid=           0
         NMat0=    1 NMatS0=      1 NMatT0=    0 NMatD0=    1 NMtDS0=    0 NMtDT0=    0
 Symmetry not used in FoFCou.
 FoFCou:  KetSym=F NOpSet=  1 NOpAb=1 NOp=  1.
 FoFCou:  CnvScl= 1.00D+00 Thresh= 1.00D-10 IAcrcy=      10.
 PrismS was handed   419077901 working-precision words and  3402 shell-pairs
 FoFCou: LinMIO=F DoNuc=F BraDBF=F KetDBF=F HaveP=T PDBF=F HaveZ=T HaveW=F
         NIJTC =      10 NIJTAt=       0 NIJTCD=       0 NIJTT =      10
         IJTBeg=       1 IJTEnd=      10 KLTBeg=       1 KLTEnd=      10
         IPTBeg=       1 IPTEnd=      10 IPTBCv=       1 IPTECv=      10
         IZTBeg=       1 IZTEnd=      10 IZTBCv=       1 IZTECv=      10
         IWTBeg=      11 IWTEnd=      10 IWTBCv=      11 IWTECv=      10
         INTBeg=       1 INTEnd=       0 IFTBCv=       1 IFTECv=      10
 NCel replicated for PrismC:     1
 CoulSu:  IncDef=  1024 NBBP=        5788503 NTPThr=   100 NPartT=   32 Incr=        1024 LDynOK=F.
 CoulSu:  NPrtUS=  32 ThrOK=T IAlg=1 NPAlg=1 LenDen=           0 LWGrdD=           0 DoCopy=F.
 Enter PrismC: JobTyp=21 DoJE=F Cont=F.
 PrismC:  IPart=     0 DynPar=T LinDyn=F Incr=        1024 UseFst=F UseS4=T IGathr=2.
 PrismC was handed    13043170 working-precision words and  3402 shell-pairs
 Enter PrismC: JobTyp=21 DoJE=F Cont=F.
 Enter PrismC: JobTyp=21 DoJE=F Cont=F.
 Enter PrismC: JobTyp=21 DoJE=F Cont=F.
 Enter PrismC: JobTyp=21 DoJE=F Cont=F.
 Enter PrismC: JobTyp=21 DoJE=F Cont=F.
 Enter PrismC: JobTyp=21 DoJE=F Cont=F.
 Enter PrismC: JobTyp=21 DoJE=F Cont=F.
 Enter PrismC: JobTyp=21 DoJE=F Cont=F.
 Enter PrismC: JobTyp=21 DoJE=F Cont=F.
 Enter PrismC: JobTyp=21 DoJE=F Cont=F.
 Enter PrismC: JobTyp=21 DoJE=F Cont=F.
 PrismC was handed    13043170 working-precision words and  3402 shell-pairs
 Enter PrismC: JobTyp=21 DoJE=F Cont=F.
 PrismC was handed    13043170 working-precision words and  3402 shell-pairs
 Enter PrismC: JobTyp=21 DoJE=F Cont=F.
 PrismC was handed    13043170 working-precision words and  3402 shell-pairs
 Enter PrismC: JobTyp=21 DoJE=F Cont=F.
 PrismC was handed    13043170 working-precision words and  3402 shell-pairs
 Enter PrismC: JobTyp=21 DoJE=F Cont=F.
 PrismC was handed    13043170 working-precision words and  3402 shell-pairs
 Enter PrismC: JobTyp=21 DoJE=F Cont=F.
 PrismC was handed    13043170 working-precision words and  3402 shell-pairs
 Enter PrismC: JobTyp=21 DoJE=F Cont=F.
 PrismC was handed    13043170 working-precision words and  3402 shell-pairs
 Enter PrismC: JobTyp=21 DoJE=F Cont=F.
 PrismC was handed    13043170 working-precision words and  3402 shell-pairs
 Enter PrismC: JobTyp=21 DoJE=F Cont=F.
 PrismC was handed    13043170 working-precision words and  3402 shell-pairs
 Enter PrismC: JobTyp=21 DoJE=F Cont=F.
 PrismC was handed    13043170 working-precision words and  3402 shell-pairs
 Enter PrismC: JobTyp=21 DoJE=F Cont=F.
 PrismC was handed    13043170 working-precision words and  3402 shell-pairs
 Enter PrismC: JobTyp=21 DoJE=F Cont=F.
 PrismC was handed    13043170 working-precision words and  3402 shell-pairs
 Enter PrismC: JobTyp=21 DoJE=F Cont=F.
 PrismC was handed    13043170 working-precision words and  3402 shell-pairs
 Enter PrismC: JobTyp=21 DoJE=F Cont=F.
 PrismC was handed    13043170 working-precision words and  3402 shell-pairs
 Enter PrismC: JobTyp=21 DoJE=F Cont=F.
 PrismC was handed    13043170 working-precision words and  3402 shell-pairs
 Enter PrismC: JobTyp=21 DoJE=F Cont=F.
 PrismC was handed    13043170 working-precision words and  3402 shell-pairs
 Enter PrismC: JobTyp=21 DoJE=F Cont=F.
 PrismC was handed    13043170 working-precision words and  3402 shell-pairs
 Enter PrismC: JobTyp=21 DoJE=F Cont=F.
 PrismC was handed    13043170 working-precision words and  3402 shell-pairs
 Enter PrismC: JobTyp=21 DoJE=F Cont=F.
 PrismC was handed    13043170 working-precision words and  3402 shell-pairs
 Enter PrismC: JobTyp=21 DoJE=F Cont=F.
 PrismC was handed    13043170 working-precision words and  3402 shell-pairs
 Enter PrismC: JobTyp=21 DoJE=F Cont=F.
 PrismC was handed    13043170 working-precision words and  3402 shell-pairs
 PrismC was handed    13043170 working-precision words and  3402 shell-pairs
 PrismC was handed    13043170 working-precision words and  3402 shell-pairs
 PrismC was handed    13043170 working-precision words and  3402 shell-pairs
 PrismC was handed    13043170 working-precision words and  3402 shell-pairs
 PrismC was handed    13043170 working-precision words and  3402 shell-pairs
 PrismC was handed    13043170 working-precision words and  3402 shell-pairs
 PrismC was handed    13043170 working-precision words and  3402 shell-pairs
 PrismC was handed    13043170 working-precision words and  3402 shell-pairs
 PrismC was handed    13043170 working-precision words and  3402 shell-pairs
 PrismC was handed    13043170 working-precision words and  3402 shell-pairs
 IPart= 30 NShTot=      149193 NShNF=      149193 NShFF=           0 NBatch=        1430 AvBLen=       104.3
 IPart= 20 NShTot=      169667 NShNF=      169667 NShFF=           0 NBatch=        1384 AvBLen=       122.6
 IPart= 25 NShTot=      176132 NShNF=      176132 NShFF=           0 NBatch=        1583 AvBLen=       111.3
 IPart=  1 NShTot=      154659 NShNF=      154659 NShFF=           0 NBatch=        1485 AvBLen=       104.1
 IPart=  2 NShTot=      169799 NShNF=      169799 NShFF=           0 NBatch=        1386 AvBLen=       122.5
 IPart=  8 NShTot=      162475 NShNF=      162475 NShFF=           0 NBatch=        1567 AvBLen=       103.7
 IPart= 31 NShTot=      178963 NShNF=      178963 NShFF=           0 NBatch=        1546 AvBLen=       115.8
 IPart=  5 NShTot=      183848 NShNF=      183848 NShFF=           0 NBatch=        1572 AvBLen=       117.0
 IPart= 15 NShTot=      175366 NShNF=      175366 NShFF=           0 NBatch=        1536 AvBLen=       114.2
 IPart=  9 NShTot=      168151 NShNF=      168151 NShFF=           0 NBatch=        1520 AvBLen=       110.6
 IPart=  3 NShTot=      168534 NShNF=      168534 NShFF=           0 NBatch=        1354 AvBLen=       124.5
 IPart= 11 NShTot=      167172 NShNF=      167172 NShFF=           0 NBatch=        1550 AvBLen=       107.9
 IPart= 10 NShTot=      164585 NShNF=      164585 NShFF=           0 NBatch=        1599 AvBLen=       102.9
 IPart= 28 NShTot=      163868 NShNF=      163868 NShFF=           0 NBatch=        1273 AvBLen=       128.7
 IPart= 22 NShTot=      159559 NShNF=      159559 NShFF=           0 NBatch=        1534 AvBLen=       104.0
 IPart=  7 NShTot=      167234 NShNF=      167234 NShFF=           0 NBatch=        1528 AvBLen=       109.4
 IPart= 27 NShTot=      170929 NShNF=      170929 NShFF=           0 NBatch=        1574 AvBLen=       108.6
 IPart= 17 NShTot=      153617 NShNF=      153617 NShFF=           0 NBatch=        1545 AvBLen=        99.4
 IPart= 19 NShTot=      177387 NShNF=      177387 NShFF=           0 NBatch=        1633 AvBLen=       108.6
 IPart= 13 NShTot=      169204 NShNF=      169204 NShFF=           0 NBatch=        1549 AvBLen=       109.2
 IPart= 12 NShTot=      184073 NShNF=      184073 NShFF=           0 NBatch=        1576 AvBLen=       116.8
 IPart= 26 NShTot=      158953 NShNF=      158953 NShFF=           0 NBatch=        1529 AvBLen=       104.0
 IPart=  6 NShTot=      179948 NShNF=      179948 NShFF=           0 NBatch=        1600 AvBLen=       112.5
 IPart= 21 NShTot=      164292 NShNF=      164292 NShFF=           0 NBatch=        1604 AvBLen=       102.4
 IPart= 23 NShTot=      183450 NShNF=      183450 NShFF=           0 NBatch=        1514 AvBLen=       121.2
 IPart= 16 NShTot=      183033 NShNF=      183033 NShFF=           0 NBatch=        1541 AvBLen=       118.8
 IPart= 18 NShTot=      167684 NShNF=      167684 NShFF=           0 NBatch=        1589 AvBLen=       105.5
 IPart= 24 NShTot=      165532 NShNF=      165532 NShFF=           0 NBatch=        1594 AvBLen=       103.8
 IPart=  0 NShTot=      174300 NShNF=      174300 NShFF=           0 NBatch=        1241 AvBLen=       140.5
 IPart= 14 NShTot=      176828 NShNF=      176828 NShFF=           0 NBatch=        1479 AvBLen=       119.6
 IPart=  4 NShTot=      179278 NShNF=      179278 NShFF=           0 NBatch=        1538 AvBLen=       116.6
 IPart= 29 NShTot=      177786 NShNF=      177786 NShFF=           0 NBatch=        1596 AvBLen=       111.4
 CoulSu:  NxtVal=        6338561.
 FoFCou: FMM=F IPFlag=           0 FMFlag=      100000 FMFlg1=         800
         NFxFlg=           0 DoJE=F BraDBF=F KetDBF=F FulRan=T
         wScrn=  0.000000 ICntrl=    2127 IOpCl=  1 I1Cent=           0 NGrid=           0
         NMat0=    1 NMatS0=      0 NMatT0=    1 NMatD0=    1 NMtDS0=    0 NMtDT0=    0
         CW=    0.222036    0.777964
         WU=    0.000000   12.500000
 Symmetry not used in FoFCou.
 FoFCou:  KetSym=F NOpSet=  1 NOpAb=1 NOp=  1.
 FoFCou:  CnvScl= 1.00D+00 Thresh= 1.00D-10 IAcrcy=      10.
 PrismS was handed   419074554 working-precision words and  3402 shell-pairs
 FoFCou: LinMIO=F DoNuc=F BraDBF=F KetDBF=F HaveP=T PDBF=F HaveZ=T HaveW=F
         NIJTC =      10 NIJTAt=       0 NIJTCD=       0 NIJTT =      10
         IJTBeg=       1 IJTEnd=      10 KLTBeg=       1 KLTEnd=      10
         IPTBeg=       1 IPTEnd=      10 IPTBCv=       1 IPTECv=      10
         IZTBeg=       1 IZTEnd=      10 IZTBCv=       1 IZTECv=      10
         IWTBeg=      11 IWTEnd=      10 IWTBCv=      11 IWTECv=      10
         INTBeg=       1 INTEnd=       0 IFTBCv=       1 IFTECv=      10
 NCel replicated for PrismC:     1
 CoulSu:  IncDef=  1024 NBBP=        5788503 NTPThr=   100 NPartT=   32 Incr=        1024 LDynOK=F.
 CoulSu:  NPrtUS=  32 ThrOK=T IAlg=1 NPAlg=1 LenDen=           0 LWGrdD=           0 DoCopy=F.
 Enter PrismC: JobTyp=21 DoJE=F Cont=F.
 Linear combination for Coulomb/exchange, wScrn=  0.000000
 CW=    0.222036    0.777964
 WU=    0.000000   12.500000
 PrismC:  IPart=     0 DynPar=T LinDyn=F Incr=        1024 UseFst=F UseS4=T IGathr=2.
 PrismC was handed    13043066 working-precision words and  3402 shell-pairs
 Enter PrismC: JobTyp=21 DoJE=F Cont=F.
 Enter PrismC: JobTyp=21 DoJE=F Cont=F.
 Linear combination for Coulomb/exchange, wScrn=  0.000000
 CW=    0.222036    0.777964
 WU=    0.000000   12.500000
 Enter PrismC: JobTyp=21 DoJE=F Cont=F.
 Linear combination for Coulomb/exchange, wScrn=  0.000000
 CW=    0.222036    0.777964
 WU=    0.000000   12.500000
 Enter PrismC: JobTyp=21 DoJE=F Cont=F.
 Linear combination for Coulomb/exchange, wScrn=  0.000000
 CW=    0.222036    0.777964
 WU=    0.000000   12.500000
 Enter PrismC: JobTyp=21 DoJE=F Cont=F.
 Linear combination for Coulomb/exchange, wScrn=  0.000000
 CW=    0.222036    0.777964
 WU=    0.000000   12.500000
 Enter PrismC: JobTyp=21 DoJE=F Cont=F.
 Linear combination for Coulomb/exchange, wScrn=  0.000000
 CW=    0.222036    0.777964
 WU=    0.000000   12.500000
 Enter PrismC: JobTyp=21 DoJE=F Cont=F.
 Linear combination for Coulomb/exchange, wScrn=  0.000000
 CW=    0.222036    0.777964
 WU=    0.000000   12.500000
 Enter PrismC: JobTyp=21 DoJE=F Cont=F.
 Linear combination for Coulomb/exchange, wScrn=  0.000000
 CW=    0.222036    0.777964
 WU=    0.000000   12.500000
 Enter PrismC: JobTyp=21 DoJE=F Cont=F.
 Linear combination for Coulomb/exchange, wScrn=  0.000000
 CW=    0.222036    0.777964
 WU=    0.000000   12.500000
 Enter PrismC: JobTyp=21 DoJE=F Cont=F.
 Linear combination for Coulomb/exchange, wScrn=  0.000000
 CW=    0.222036    0.777964
 WU=    0.000000   12.500000
 Enter PrismC: JobTyp=21 DoJE=F Cont=F.
 Linear combination for Coulomb/exchange, wScrn=  0.000000
 CW=    0.222036    0.777964
 WU=    0.000000   12.500000
 Enter PrismC: JobTyp=21 DoJE=F Cont=F.
 Linear combination for Coulomb/exchange, wScrn=  0.000000
 CW=    0.222036    0.777964
 WU=    0.000000   12.500000
 Enter PrismC: JobTyp=21 DoJE=F Cont=F.
 Linear combination for Coulomb/exchange, wScrn=  0.000000
 CW=    0.222036    0.777964
 WU=    0.000000   12.500000
 Enter PrismC: JobTyp=21 DoJE=F Cont=F.
 Linear combination for Coulomb/exchange, wScrn=  0.000000
 CW=    0.222036    0.777964
 WU=    0.000000   12.500000
 Enter PrismC: JobTyp=21 DoJE=F Cont=F.
 Linear combination for Coulomb/exchange, wScrn=  0.000000
 CW=    0.222036    0.777964
 WU=    0.000000   12.500000
 Enter PrismC: JobTyp=21 DoJE=F Cont=F.
 Linear combination for Coulomb/exchange, wScrn=  0.000000
 CW=    0.222036    0.777964
 WU=    0.000000   12.500000
 Enter PrismC: JobTyp=21 DoJE=F Cont=F.
 Linear combination for Coulomb/exchange, wScrn=  0.000000
 CW=    0.222036    0.777964
 WU=    0.000000   12.500000
 PrismC was handed    13043066 working-precision words and  3402 shell-pairs
 Enter PrismC: JobTyp=21 DoJE=F Cont=F.
 Linear combination for Coulomb/exchange, wScrn=  0.000000
 CW=    0.222036    0.777964
 WU=    0.000000   12.500000
 Enter PrismC: JobTyp=21 DoJE=F Cont=F.
 Linear combination for Coulomb/exchange, wScrn=  0.000000
 CW=    0.222036    0.777964
 WU=    0.000000   12.500000
 Linear combination for Coulomb/exchange, wScrn=  0.000000
 CW=    0.222036    0.777964
 WU=    0.000000   12.500000
 PrismC was handed    13043066 working-precision words and  3402 shell-pairs
 Enter PrismC: JobTyp=21 DoJE=F Cont=F.
 Linear combination for Coulomb/exchange, wScrn=  0.000000
 CW=    0.222036    0.777964
 WU=    0.000000   12.500000
 Enter PrismC: JobTyp=21 DoJE=F Cont=F.
 Linear combination for Coulomb/exchange, wScrn=  0.000000
 CW=    0.222036    0.777964
 WU=    0.000000   12.500000
 Enter PrismC: JobTyp=21 DoJE=F Cont=F.
 Linear combination for Coulomb/exchange, wScrn=  0.000000
 CW=    0.222036    0.777964
 WU=    0.000000   12.500000
 Enter PrismC: JobTyp=21 DoJE=F Cont=F.
 Linear combination for Coulomb/exchange, wScrn=  0.000000
 CW=    0.222036    0.777964
 WU=    0.000000   12.500000
 Enter PrismC: JobTyp=21 DoJE=F Cont=F.
 Linear combination for Coulomb/exchange, wScrn=  0.000000
 CW=    0.222036    0.777964
 WU=    0.000000   12.500000
 PrismC was handed    13043066 working-precision words and  3402 shell-pairs
 PrismC was handed    13043066 working-precision words and  3402 shell-pairs
 PrismC was handed    13043066 working-precision words and  3402 shell-pairs
 Enter PrismC: JobTyp=21 DoJE=F Cont=F.
 Linear combination for Coulomb/exchange, wScrn=  0.000000
 CW=    0.222036    0.777964
 WU=    0.000000   12.500000
 Enter PrismC: JobTyp=21 DoJE=F Cont=F.
 Linear combination for Coulomb/exchange, wScrn=  0.000000
 CW=    0.222036    0.777964
 WU=    0.000000   12.500000
 PrismC was handed    13043066 working-precision words and  3402 shell-pairs
 PrismC was handed    13043066 working-precision words and  3402 shell-pairs
 PrismC was handed    13043066 working-precision words and  3402 shell-pairs
 Enter PrismC: JobTyp=21 DoJE=F Cont=F.
 Linear combination for Coulomb/exchange, wScrn=  0.000000
 CW=    0.222036    0.777964
 WU=    0.000000   12.500000
 Enter PrismC: JobTyp=21 DoJE=F Cont=F.
 Linear combination for Coulomb/exchange, wScrn=  0.000000
 CW=    0.222036    0.777964
 WU=    0.000000   12.500000
 Enter PrismC: JobTyp=21 DoJE=F Cont=F.
 Linear combination for Coulomb/exchange, wScrn=  0.000000
 CW=    0.222036    0.777964
 WU=    0.000000   12.500000
 PrismC was handed    13043066 working-precision words and  3402 shell-pairs
 Enter PrismC: JobTyp=21 DoJE=F Cont=F.
 Linear combination for Coulomb/exchange, wScrn=  0.000000
 CW=    0.222036    0.777964
 WU=    0.000000   12.500000
 PrismC was handed    13043066 working-precision words and  3402 shell-pairs
 PrismC was handed    13043066 working-precision words and  3402 shell-pairs
 PrismC was handed    13043066 working-precision words and  3402 shell-pairs
 PrismC was handed    13043066 working-precision words and  3402 shell-pairs
 Enter PrismC: JobTyp=21 DoJE=F Cont=F.
 Linear combination for Coulomb/exchange, wScrn=  0.000000
 CW=    0.222036    0.777964
 WU=    0.000000   12.500000
 PrismC was handed    13043066 working-precision words and  3402 shell-pairs
 PrismC was handed    13043066 working-precision words and  3402 shell-pairs
 PrismC was handed    13043066 working-precision words and  3402 shell-pairs
 PrismC was handed    13043066 working-precision words and  3402 shell-pairs
 PrismC was handed    13043066 working-precision words and  3402 shell-pairs
 PrismC was handed    13043066 working-precision words and  3402 shell-pairs
 PrismC was handed    13043066 working-precision words and  3402 shell-pairs
 PrismC was handed    13043066 working-precision words and  3402 shell-pairs
 PrismC was handed    13043066 working-precision words and  3402 shell-pairs
 PrismC was handed    13043066 working-precision words and  3402 shell-pairs
 PrismC was handed    13043066 working-precision words and  3402 shell-pairs
 PrismC was handed    13043066 working-precision words and  3402 shell-pairs
 PrismC was handed    13043066 working-precision words and  3402 shell-pairs
 PrismC was handed    13043066 working-precision words and  3402 shell-pairs
 PrismC was handed    13043066 working-precision words and  3402 shell-pairs
 PrismC was handed    13043066 working-precision words and  3402 shell-pairs
 PrismC was handed    13043066 working-precision words and  3402 shell-pairs
 PrismC was handed    13043066 working-precision words and  3402 shell-pairs
 IPart= 11 NShTot=      176859 NShNF=      176859 NShFF=           0 NBatch=        1866 AvBLen=        94.8
 IPart=  1 NShTot=      181137 NShNF=      181137 NShFF=           0 NBatch=        1849 AvBLen=        98.0
 IPart=  6 NShTot=      179390 NShNF=      179390 NShFF=           0 NBatch=        1919 AvBLen=        93.5
 IPart=  3 NShTot=      162516 NShNF=      162516 NShFF=           0 NBatch=        1883 AvBLen=        86.3
 IPart= 25 NShTot=      174404 NShNF=      174404 NShFF=           0 NBatch=        1928 AvBLen=        90.5
 IPart= 26 NShTot=      167465 NShNF=      167465 NShFF=           0 NBatch=        1847 AvBLen=        90.7
 IPart= 16 NShTot=      175397 NShNF=      175397 NShFF=           0 NBatch=        1943 AvBLen=        90.3
 IPart= 12 NShTot=      167484 NShNF=      167484 NShFF=           0 NBatch=        1704 AvBLen=        98.3
 IPart= 22 NShTot=      158259 NShNF=      158259 NShFF=           0 NBatch=        1853 AvBLen=        85.4
 IPart=  8 NShTot=      160722 NShNF=      160722 NShFF=           0 NBatch=        1707 AvBLen=        94.2
 IPart= 15 NShTot=      164583 NShNF=      164583 NShFF=           0 NBatch=        1849 AvBLen=        89.0
 IPart= 24 NShTot=      163659 NShNF=      163659 NShFF=           0 NBatch=        1834 AvBLen=        89.2
 IPart= 14 NShTot=      186386 NShNF=      186386 NShFF=           0 NBatch=        1948 AvBLen=        95.7
 IPart= 19 NShTot=      173999 NShNF=      173999 NShFF=           0 NBatch=        1927 AvBLen=        90.3
 IPart= 21 NShTot=      185097 NShNF=      185097 NShFF=           0 NBatch=        1917 AvBLen=        96.6
 IPart= 31 NShTot=      176996 NShNF=      176996 NShFF=           0 NBatch=        1904 AvBLen=        93.0
 IPart=  9 NShTot=      154000 NShNF=      154000 NShFF=           0 NBatch=        1841 AvBLen=        83.7
 IPart=  4 NShTot=      167450 NShNF=      167450 NShFF=           0 NBatch=        1853 AvBLen=        90.4
 IPart=  7 NShTot=      178823 NShNF=      178823 NShFF=           0 NBatch=        1864 AvBLen=        95.9
 IPart= 27 NShTot=      159077 NShNF=      159077 NShFF=           0 NBatch=        1935 AvBLen=        82.2
 IPart=  0 NShTot=      161704 NShNF=      161704 NShFF=           0 NBatch=        1611 AvBLen=       100.4
 IPart= 13 NShTot=      165608 NShNF=      165608 NShFF=           0 NBatch=        1892 AvBLen=        87.5
 IPart= 28 NShTot=      154713 NShNF=      154713 NShFF=           0 NBatch=        1824 AvBLen=        84.8
 IPart= 20 NShTot=      170691 NShNF=      170691 NShFF=           0 NBatch=        1852 AvBLen=        92.2
 IPart= 29 NShTot=      169610 NShNF=      169610 NShFF=           0 NBatch=        1871 AvBLen=        90.7
 IPart= 10 NShTot=      181219 NShNF=      181219 NShFF=           0 NBatch=        1940 AvBLen=        93.4
 IPart= 30 NShTot=      171748 NShNF=      171748 NShFF=           0 NBatch=        1691 AvBLen=       101.6
 IPart= 17 NShTot=      181579 NShNF=      181579 NShFF=           0 NBatch=        1913 AvBLen=        94.9
 IPart=  2 NShTot=      172728 NShNF=      172728 NShFF=           0 NBatch=        1982 AvBLen=        87.1
 IPart= 23 NShTot=      171279 NShNF=      171279 NShFF=           0 NBatch=        1853 AvBLen=        92.4
 IPart=  5 NShTot=      182409 NShNF=      182409 NShFF=           0 NBatch=        1911 AvBLen=        95.5
 IPart= 18 NShTot=      160071 NShNF=      160071 NShFF=           0 NBatch=        1808 AvBLen=        88.5
 CoulSu:  NxtVal=        6338561.
 ReadGW:  IGet=0 IStart=           1 Next=           1 LGW=           0.
 Remaining memory in FofDFT      399.87 Mw
 CkSvGd:  ISavGI=        -1 IRadAn=       5 IRASav=       5 ISavGd=        -1.
 CalDSu:  NPrtUS=  32 ThrOK=T IAlg=1 NPAlg=2 DoDPD=T LenP=       33930 LenD1P=             0.
 IPart=  0 IRanGd=          0 ScrnBf=T ScrnGd=T RCrit=4.00D+00 DoMicB=T.
 IPart= 13         6093 of         7300 points in      10 batches and       29 microbatches, Max-NSigAt=       8 Max-NSgAt2=       8
 IPart= 22         5929 of         6914 points in       8 batches and       15 microbatches, Max-NSigAt=       8 Max-NSgAt2=       8
 IPart= 12         5532 of         6184 points in       7 batches and       23 microbatches, Max-NSigAt=       8 Max-NSgAt2=       8
 IPart=  6         4543 of         4920 points in       5 batches and       22 microbatches, Max-NSigAt=       8 Max-NSgAt2=       8
 IPart= 18         5847 of         7302 points in      10 batches and       45 microbatches, Max-NSigAt=       8 Max-NSgAt2=       8
 IPart=  1         5132 of         5718 points in       6 batches and       40 microbatches, Max-NSigAt=       8 Max-NSgAt2=       8
 IPart=  8         4742 of         5090 points in       5 batches and       15 microbatches, Max-NSigAt=       8 Max-NSgAt2=       8
 IPart= 14         5246 of         5790 points in       7 batches and       38 microbatches, Max-NSigAt=       8 Max-NSgAt2=       8
 IPart= 31         4315 of         4748 points in       5 batches and       30 microbatches, Max-NSigAt=       8 Max-NSgAt2=       8
 IPart= 19         4700 of         4748 points in       4 batches and       12 microbatches, Max-NSigAt=       8 Max-NSgAt2=       8
 IPart=  9         5005 of         5420 points in       6 batches and       22 microbatches, Max-NSigAt=       8 Max-NSgAt2=       8
 IPart= 17         5239 of         5922 points in       7 batches and       29 microbatches, Max-NSigAt=       8 Max-NSgAt2=       8
 IPart= 23         4933 of         5118 points in       5 batches and       28 microbatches, Max-NSigAt=       8 Max-NSgAt2=       8
 IPart=  5         4370 of         4732 points in       5 batches and       27 microbatches, Max-NSigAt=       8 Max-NSgAt2=       8
 IPart=  3         4396 of         4762 points in       5 batches and       26 microbatches, Max-NSigAt=       8 Max-NSgAt2=       8
 IPart= 30         5158 of         5552 points in       6 batches and       31 microbatches, Max-NSigAt=       8 Max-NSgAt2=       8
 IPart= 29         4538 of         4720 points in       4 batches and       16 microbatches, Max-NSigAt=       8 Max-NSgAt2=       8
 IPart= 26         4644 of         4920 points in       5 batches and       28 microbatches, Max-NSigAt=       8 Max-NSgAt2=       8
 IPart=  4         5871 of         7154 points in      10 batches and       74 microbatches, Max-NSigAt=       8 Max-NSgAt2=       8
 IPart= 27         5796 of         6764 points in       9 batches and       76 microbatches, Max-NSigAt=       8 Max-NSgAt2=       8
 IPart= 21         5485 of         6196 points in       8 batches and       36 microbatches, Max-NSigAt=       8 Max-NSgAt2=       8
 IPart= 25         5325 of         5956 points in       6 batches and       27 microbatches, Max-NSigAt=       8 Max-NSgAt2=       8
 IPart= 28         5911 of         6632 points in       8 batches and       43 microbatches, Max-NSigAt=       8 Max-NSgAt2=       8
 IPart= 11         5755 of         6334 points in       7 batches and       22 microbatches, Max-NSigAt=       8 Max-NSgAt2=       8
 IPart= 20         5460 of         6128 points in       7 batches and       45 microbatches, Max-NSigAt=       8 Max-NSgAt2=       8
 IPart=  7         5104 of         5352 points in       5 batches and       31 microbatches, Max-NSigAt=       8 Max-NSgAt2=       8
 IPart= 10         5340 of         5970 points in       7 batches and       53 microbatches, Max-NSigAt=       8 Max-NSgAt2=       8
 IPart= 16         6199 of         6942 points in       8 batches and       23 microbatches, Max-NSigAt=       8 Max-NSgAt2=       8
 IPart= 24         5046 of         5324 points in       5 batches and       27 microbatches, Max-NSigAt=       8 Max-NSgAt2=       8
 IPart= 15         5436 of         5928 points in       6 batches and       27 microbatches, Max-NSigAt=       8 Max-NSgAt2=       8
 IPart=  2         4957 of         5324 points in       5 batches and       31 microbatches, Max-NSigAt=       8 Max-NSgAt2=       8
 IPart=  0         5141 of         5348 points in       5 batches and       21 microbatches, Max-NSigAt=       8 Max-NSgAt2=       8
 Forces at end of L703
 I=    0 X=   1.204271368332D-03 Y=  -2.521657537989D-03 Z=   2.131636721830D-03
 I=    1 X=   8.373180156071D-03 Y=   2.752119337745D-02 Z=   7.371840816869D-04
 I=    2 X=   3.231299095626D-04 Y=  -3.105036131176D-03 Z=   4.067326618631D-04
 I=    3 X=   2.709541412087D-04 Y=  -1.447622348089D-03 Z=   1.475420071257D-04
 I=    4 X=  -1.362255810188D-03 Y=  -1.132210237794D-02 Z=  -1.666671261963D-03
 I=    5 X=  -1.092972194017D-02 Y=  -2.591045705109D-02 Z=  -5.525149671588D-03
 I=    6 X=   2.718074491908D-04 Y=   1.007762912627D-03 Z=   8.557000384652D-04
 I=    7 X=   9.383384431367D-04 Y=   2.563616490258D-03 Z=   1.888640206909D-03
 I=    8 X=   2.114567651196D-03 Y=   1.069264512796D-02 Z=   3.156021937499D-03
 FrcOut:
 IF    =    45 IFX   =    69 IFXYZ =    93
 IFFX  =   117 IFFFX =   417 IFLen =    24
 IFFLen=   300 IFFFLn=     0 IEDerv=   417
 LEDerv=  1205 IFroze=  1904 ICStrt=108261
 FCEst1:  Generated internal coordinate force constants:
                1             2             3             4             5 
      1  0.740700D+00
      2  0.192556D-01  0.237387D+00
      3 -0.446802D-02  0.115307D-01  0.745871D+00
      4 -0.120603D+00 -0.995392D-02  0.416540D-02  0.815218D-01
      5 -0.997609D-02 -0.709328D-01  0.154387D-01  0.940650D-02  0.468704D-01
      6  0.000000D+00  0.000000D+00 -0.362127D+00  0.000000D+00  0.000000D+00
      7 -0.299949D+00 -0.507465D-02  0.103468D+00  0.192946D-01 -0.340156D-04
      8  0.827250D-02 -0.706533D-01 -0.165078D-01 -0.680886D-04  0.108702D-01
      9  0.107817D+00 -0.879945D-02 -0.182714D+00  0.334568D-01 -0.589831D-04
     10 -0.300804D+00 -0.663745D-03 -0.105854D+00  0.193392D-01  0.416562D-04
     11 -0.139618D-01 -0.662201D-01 -0.828966D-02  0.547551D-04  0.108402D-01
     12 -0.106044D+00 -0.570954D-03 -0.178888D+00 -0.334688D-01 -0.135086D-03
     13 -0.227459D-01 -0.264774D-02  0.275213D-02  0.409496D-03  0.572195D-03
     14 -0.267713D-02 -0.297370D-01 -0.273170D-02  0.570624D-03  0.234930D-02
     15  0.276206D-02 -0.271979D-02 -0.188487D-01 -0.415115D-02 -0.152453D-01
     16 -0.162123D-02  0.275390D-03  0.101014D-02 -0.244644D-03  0.666035D-04
     17 -0.132531D-01  0.236087D-02  0.759045D-02  0.143643D-03 -0.391063D-04
     18 -0.307266D-02  0.521674D-03  0.191609D-02 -0.468843D-03  0.127641D-03
     19  0.511486D-02 -0.183239D-02  0.267706D-02 -0.265382D-03  0.722495D-04
     20  0.120076D-01 -0.435339D-02  0.659912D-02 -0.635459D-05  0.173002D-05
     21  0.285457D-02 -0.107514D-02  0.181353D-02  0.478366D-03 -0.130234D-03
     22 -0.928693D-04  0.641510D-03 -0.375021D-02  0.547686D-03 -0.149106D-03
     23  0.332481D-03  0.214911D-02 -0.136298D-01 -0.147161D-03  0.400642D-04
     24  0.151271D-03  0.111292D-02 -0.702359D-02 -0.118327D-04  0.322143D-05
                6             7             8             9            10 
      6  0.362127D+00
      7  0.000000D+00  0.292119D+00
      8  0.000000D+00  0.478899D-02  0.467629D-01
      9  0.000000D+00 -0.121393D+00  0.830412D-02  0.151631D+00
     10  0.000000D+00 -0.966159D-02 -0.955378D-04 -0.167532D-01  0.291291D+00
     11  0.000000D+00  0.266469D-04  0.108400D-01  0.462057D-04  0.676556D-03
     12  0.000000D+00  0.167202D-01  0.102342D-03  0.289928D-01  0.122585D+00
     13  0.000000D+00 -0.178492D-02 -0.129083D-01 -0.309506D-02 -0.144083D-03
     14  0.000000D+00  0.288111D-03  0.218294D-02  0.499584D-03  0.357607D-04
     15  0.000000D+00  0.120394D-02  0.810202D-02  0.208763D-02  0.210890D-04
     16  0.000000D+00  0.121837D-03 -0.678846D-04  0.211266D-03  0.131584D-03
     17  0.000000D+00 -0.715370D-04  0.398585D-04 -0.124045D-03 -0.772598D-04
     18  0.000000D+00  0.233493D-03 -0.130096D-03  0.404877D-03  0.252172D-03
     19  0.000000D+00  0.132165D-03 -0.736392D-04  0.229175D-03  0.142739D-03
     20  0.000000D+00  0.316471D-05 -0.176330D-05  0.548761D-05  0.341789D-05
     21  0.000000D+00 -0.238236D-03  0.132739D-03 -0.413101D-03 -0.257294D-03
     22  0.000000D+00 -0.272758D-03  0.151974D-03 -0.472963D-03 -0.294579D-03
     23  0.000000D+00  0.732893D-04 -0.408349D-04  0.127084D-03  0.791523D-04
     24  0.000000D+00  0.589293D-05 -0.328339D-05  0.102183D-04  0.636436D-05
               11            12            13            14            15 
     11  0.493830D-01
     12  0.646632D-03  0.149978D+00
     13  0.132041D-01  0.172615D-03  0.721249D+00
     14 -0.484307D-02 -0.337424D-04 -0.998285D-01  0.381052D+00
     15  0.759681D-02 -0.806446D-04 -0.564463D-01 -0.204926D+00  0.621794D+00
     16  0.159646D-05 -0.227729D-03 -0.304143D+00  0.124492D-01  0.106983D+00
     17  0.000000D+00  0.133711D-03  0.259249D-01 -0.920548D-01  0.161637D-01
     18  0.305951D-05 -0.436427D-03  0.110978D+00  0.231880D-01 -0.157291D+00
     19  0.173179D-05 -0.247033D-03 -0.275319D+00  0.908235D-01 -0.801653D-01
     20  0.000000D+00 -0.591523D-05  0.770428D-01 -0.127911D+00  0.644206D-01
     21 -0.312165D-05  0.445291D-03 -0.803176D-01  0.720213D-01 -0.150228D+00
     22 -0.357401D-05  0.509818D-03 -0.117522D+00 -0.166164D-02  0.297924D-01
     23  0.000000D+00 -0.136986D-03 -0.135954D-02 -0.131038D+00  0.126608D+00
     24  0.000000D+00 -0.110146D-04  0.259562D-01  0.111983D+00 -0.297433D+00
               16            17            18            19            20 
     16  0.298377D+00
     17 -0.935273D-02  0.637127D-01
     18 -0.122059D+00 -0.171898D-01  0.128424D+00
     19 -0.816165D-02  0.132832D-01 -0.156618D-01  0.256538D+00
     20 -0.166393D-02  0.129829D-01 -0.321782D-02 -0.988833D-01  0.113649D+00
     21  0.132199D-01 -0.110772D-01  0.253431D-01  0.924398D-01 -0.717863D-01
     22  0.155394D-01 -0.165971D-01  0.297982D-01  0.218182D-01  0.114965D-01
     23 -0.170823D-02  0.129986D-01 -0.330269D-02 -0.339140D-02  0.563259D-02
     24  0.861752D-03  0.450317D-02  0.163939D-02  0.728004D-03  0.398485D-02
               21            22            23            24 
     21  0.120321D+00
     22 -0.281796D-01  0.802770D-01
     23  0.119180D-01  0.612142D-02  0.110258D+00
     24  0.271833D-02 -0.276976D-01 -0.121584D+00  0.300100D+00
 Quadrupole    = 8.96771176D-01-1.51439596D+00 6.17624784D-01
                -2.15157260D-01-1.71631285D-01-5.66608665D-01
 -------------------------------------------------------------------
 Center     Atomic                   Forces (Hartrees/Bohr)
 Number     Number              X              Y              Z
 -------------------------------------------------------------------
      1        6          -0.008373180   -0.027521193   -0.000737184
      2        1          -0.000323130    0.003105036   -0.000406733
      3        1          -0.000270954    0.001447622   -0.000147542
      4        1           0.001362256    0.011322102    0.001666671
      5        6           0.010929722    0.025910457    0.005525150
      6        1          -0.000271807   -0.001007763   -0.000855700
      7        1          -0.000938338   -0.002563616   -0.001888640
      8        1          -0.002114568   -0.010692645   -0.003156022
 -------------------------------------------------------------------
 Cartesian Forces:  Max     0.027521193 RMS     0.008981320
 From PutF, contents of force:
   1   -0.1387189355D-01
   2    0.3864284261D-03
   3   -0.1195166829D-01
   4   -0.1737683053D-01
   5   -0.6080854263D-02
   6    0.1996582806D-01
   7   -0.1562768929D-03
   8   -0.4308730173D-03
   9   -0.2027036188D-02
  10    0.6128748109D-03
  11    0.1441494717D-02
  12   -0.1965714896D-01
  13   -0.1512859016D-02
  14    0.5362173826D-03
  15   -0.2046271533D-02
  16   -0.1610103367D-03
  17   -0.4067326619D-03
  18   -0.1301312431D-01
 -----------------------------------------------------------------------------------------------
                       Internal Coordinate Forces (Hartree/Bohr or radian)
  Cent   Atom   N1       Length/X         N2         Alpha/Y        N3         Beta/Z          J
 -----------------------------------------------------------------------------------------------
      1  C 
      2  H        1  -0.000407(     1)
      3  H        1  -0.000161(     2)      2   0.000536(     8)
      4  H        1  -0.002046(     3)      2  -0.001513(     9)      3   0.019966(    14)     0
      5  C        1  -0.013013(     4)      2  -0.006081(    10)      3  -0.017377(    15)     0
      6  H        5  -0.000156(     5)      1  -0.011952(    11)      2   0.000386(    16)     0
      7  H        5  -0.000431(     6)      6   0.000613(    12)      1  -0.013872(    17)     0
      8  H        5  -0.002027(     7)      6   0.001441(    13)      7  -0.019657(    18)     0
 -----------------------------------------------------------------------------------------------
 Internal  Forces:  Max     0.019965828 RMS     0.009552366
 Force constants in Cartesian coordinates: 
                1             2             3             4             5 
      1  0.740700D+00
      2  0.192556D-01  0.237387D+00
      3 -0.446802D-02  0.115307D-01  0.745871D+00
      4 -0.120603D+00 -0.995392D-02  0.416540D-02  0.815218D-01
      5 -0.997609D-02 -0.709328D-01  0.154387D-01  0.940650D-02  0.468704D-01
      6  0.000000D+00  0.000000D+00 -0.362127D+00  0.000000D+00  0.000000D+00
      7 -0.299949D+00 -0.507465D-02  0.103468D+00  0.192946D-01 -0.340156D-04
      8  0.827250D-02 -0.706533D-01 -0.165078D-01 -0.680886D-04  0.108702D-01
      9  0.107817D+00 -0.879945D-02 -0.182714D+00  0.334568D-01 -0.589831D-04
     10 -0.300804D+00 -0.663745D-03 -0.105854D+00  0.193392D-01  0.416562D-04
     11 -0.139618D-01 -0.662201D-01 -0.828966D-02  0.547551D-04  0.108402D-01
     12 -0.106044D+00 -0.570954D-03 -0.178888D+00 -0.334688D-01 -0.135086D-03
     13 -0.227459D-01 -0.264774D-02  0.275213D-02  0.409496D-03  0.572195D-03
     14 -0.267713D-02 -0.297370D-01 -0.273170D-02  0.570624D-03  0.234930D-02
     15  0.276206D-02 -0.271979D-02 -0.188487D-01 -0.415115D-02 -0.152453D-01
     16 -0.162123D-02  0.275390D-03  0.101014D-02 -0.244644D-03  0.666035D-04
     17 -0.132531D-01  0.236087D-02  0.759045D-02  0.143643D-03 -0.391063D-04
     18 -0.307266D-02  0.521674D-03  0.191609D-02 -0.468843D-03  0.127641D-03
     19  0.511486D-02 -0.183239D-02  0.267706D-02 -0.265382D-03  0.722495D-04
     20  0.120076D-01 -0.435339D-02  0.659912D-02 -0.635459D-05  0.173002D-05
     21  0.285457D-02 -0.107514D-02  0.181353D-02  0.478366D-03 -0.130234D-03
     22 -0.928693D-04  0.641510D-03 -0.375021D-02  0.547686D-03 -0.149106D-03
     23  0.332481D-03  0.214911D-02 -0.136298D-01 -0.147161D-03  0.400642D-04
     24  0.151271D-03  0.111292D-02 -0.702359D-02 -0.118327D-04  0.322143D-05
                6             7             8             9            10 
      6  0.362127D+00
      7  0.000000D+00  0.292119D+00
      8  0.000000D+00  0.478899D-02  0.467629D-01
      9  0.000000D+00 -0.121393D+00  0.830412D-02  0.151631D+00
     10  0.000000D+00 -0.966159D-02 -0.955378D-04 -0.167532D-01  0.291291D+00
     11  0.000000D+00  0.266469D-04  0.108400D-01  0.462057D-04  0.676556D-03
     12  0.000000D+00  0.167202D-01  0.102342D-03  0.289928D-01  0.122585D+00
     13  0.000000D+00 -0.178492D-02 -0.129083D-01 -0.309506D-02 -0.144083D-03
     14  0.000000D+00  0.288111D-03  0.218294D-02  0.499584D-03  0.357607D-04
     15  0.000000D+00  0.120394D-02  0.810202D-02  0.208763D-02  0.210890D-04
     16  0.000000D+00  0.121837D-03 -0.678846D-04  0.211266D-03  0.131584D-03
     17  0.000000D+00 -0.715370D-04  0.398585D-04 -0.124045D-03 -0.772598D-04
     18  0.000000D+00  0.233493D-03 -0.130096D-03  0.404877D-03  0.252172D-03
     19  0.000000D+00  0.132165D-03 -0.736392D-04  0.229175D-03  0.142739D-03
     20  0.000000D+00  0.316471D-05 -0.176330D-05  0.548761D-05  0.341789D-05
     21  0.000000D+00 -0.238236D-03  0.132739D-03 -0.413101D-03 -0.257294D-03
     22  0.000000D+00 -0.272758D-03  0.151974D-03 -0.472963D-03 -0.294579D-03
     23  0.000000D+00  0.732893D-04 -0.408349D-04  0.127084D-03  0.791523D-04
     24  0.000000D+00  0.589293D-05 -0.328339D-05  0.102183D-04  0.636436D-05
               11            12            13            14            15 
     11  0.493830D-01
     12  0.646632D-03  0.149978D+00
     13  0.132041D-01  0.172615D-03  0.721249D+00
     14 -0.484307D-02 -0.337424D-04 -0.998285D-01  0.381052D+00
     15  0.759681D-02 -0.806446D-04 -0.564463D-01 -0.204926D+00  0.621794D+00
     16  0.159646D-05 -0.227729D-03 -0.304143D+00  0.124492D-01  0.106983D+00
     17  0.000000D+00  0.133711D-03  0.259249D-01 -0.920548D-01  0.161637D-01
     18  0.305951D-05 -0.436427D-03  0.110978D+00  0.231880D-01 -0.157291D+00
     19  0.173179D-05 -0.247033D-03 -0.275319D+00  0.908235D-01 -0.801653D-01
     20  0.000000D+00 -0.591523D-05  0.770428D-01 -0.127911D+00  0.644206D-01
     21 -0.312165D-05  0.445291D-03 -0.803176D-01  0.720213D-01 -0.150228D+00
     22 -0.357401D-05  0.509818D-03 -0.117522D+00 -0.166164D-02  0.297924D-01
     23  0.000000D+00 -0.136986D-03 -0.135954D-02 -0.131038D+00  0.126608D+00
     24  0.000000D+00 -0.110146D-04  0.259562D-01  0.111983D+00 -0.297433D+00
               16            17            18            19            20 
     16  0.298377D+00
     17 -0.935273D-02  0.637127D-01
[...]
      3      3  H        1   1.078200(     2)      2  119.972(     8)
      4      4  H        1   1.078200(     3)      2  120.021(     9)      3  179.808(    14)      0
      5      5  C        1   2.600000(     4)      2   89.939(    10)      3   89.931(    15)      0
      6      6  H        5   1.078200(     5)      1   90.104(    11)      2   59.187(    16)      0
      7      7  H        5   1.078200(     6)      6  119.972(    12)      1   90.108(    17)      0
      8      8  H        5   1.078200(     7)      6  120.021(    13)      7  179.808(    18)      0
 ---------------------------------------------------------------------------------------------------
                         Z-Matrix orientation:                         
 ---------------------------------------------------------------------
 Center     Atomic      Atomic             Coordinates (Angstroms)
 Number     Number       Type             X           Y           Z
 ---------------------------------------------------------------------
      1          6           0        0.000000    0.000000    0.000000
      2          1           0        0.000000    0.000000    1.078200
      3          1           0        0.934011    0.000000   -0.538645
      4          1           0       -0.933548   -0.003135   -0.539437
      5          6           0        0.003126   -2.599997    0.002773
      6          1           0       -0.922879   -2.602475    0.555063
      7          1           0        0.944171   -2.599090    0.529033
      8          1           0       -0.011772   -2.601560   -1.075322
 ---------------------------------------------------------------------
                    Distance matrix (angstroms):
                    1          2          3          4          5
     1  C    0.000000
     2  H    1.078200   0.000000
     3  H    1.078200   1.867235   0.000000
     4  H    1.078200   1.867692   1.867562   0.000000
     5  C    2.600000   2.813634   2.814190   2.813369   0.000000
     6  H    2.816501   2.810383   3.378922   2.820392   1.078200
     7  H    2.815423   2.819276   2.809860   3.377343   1.078200
     8  H    2.815061   3.377264   2.819688   2.808675   1.078200
                    6          7          8
     6  H    0.000000
     7  H    1.867235   0.000000
     8  H    1.867692   1.867562   0.000000
 Symmetry turned off by external request.
 Stoichiometry    C2H6
 Framework group  C1[X(C2H6)]
 Deg. of freedom    18
 Full point group                 C1      NOp   1
 Rotational constants (GHZ):     71.8923492      9.3082508      9.3080706

 **********************************************************************

            Population analysis using the SCF density.

 **********************************************************************

 Alpha  occ. eigenvalues --  -10.29749 -10.28918  -0.78546  -0.73919  -0.51084
 Alpha  occ. eigenvalues --   -0.51078  -0.48900  -0.48896  -0.30548
 Alpha virt. eigenvalues --    0.01739   0.03291   0.04629   0.04629   0.05876
 Alpha virt. eigenvalues --    0.07012   0.07013   0.10751   0.11904   0.11906
 Alpha virt. eigenvalues --    0.13073   0.14184   0.14184   0.15058   0.16553
 Alpha virt. eigenvalues --    0.19603   0.19604   0.22800   0.22803   0.24586
 Alpha virt. eigenvalues --    0.24587   0.28472   0.29414   0.30912   0.30914
 Alpha virt. eigenvalues --    0.31795   0.34177   0.35376   0.35378   0.35882
 Alpha virt. eigenvalues --    0.37529   0.37531   0.37586   0.38733   0.39533
 Alpha virt. eigenvalues --    0.39849   0.39850   0.41230   0.41233   0.42005
 Alpha virt. eigenvalues --    0.42008   0.42058   0.44951   0.44953   0.47541
 Alpha virt. eigenvalues --    0.47542   0.48858   0.50148   0.50148   0.58429
 Alpha virt. eigenvalues --    0.66835   0.71219   0.71372   0.71375   0.71713
 Alpha virt. eigenvalues --    0.71715   0.77431   0.77434   0.78523   0.78535
 Alpha virt. eigenvalues --    0.78547   0.81970   0.82080   0.83105   0.83475
 Alpha virt. eigenvalues --    0.83495   0.85391   0.85391   0.85932   0.90524
 Alpha virt. eigenvalues --    0.90525   0.92072   0.94366   0.94378   0.96677
 Alpha virt. eigenvalues --    0.98469   1.04343   1.04357   1.05173   1.05174
 Alpha virt. eigenvalues --    1.06561   1.06570   1.07405   1.08588   1.13878
 Alpha virt. eigenvalues --    1.14406   1.14408   1.15157   1.15161   1.16178
 Alpha virt. eigenvalues --    1.16187   1.21850   1.26198   1.26210   1.27298
 Alpha virt. eigenvalues --    1.27315   1.39027   1.43211   1.43220   1.43221
 Alpha virt. eigenvalues --    1.46277   1.49034   1.49049   1.51450   1.51879
 Alpha virt. eigenvalues --    1.51888   1.52868   1.53152   1.53180   1.54030
 Alpha virt. eigenvalues --    1.56469   1.56503   1.61320   1.62447   1.67570
 Alpha virt. eigenvalues --    1.67586   1.71423   1.81354   1.81487   1.81496
 Alpha virt. eigenvalues --    1.82124   1.82131   1.86723   1.90503   1.97047
 Alpha virt. eigenvalues --    1.97051   2.04750   2.04758   2.10022   2.10347
 Alpha virt. eigenvalues --    2.10370   2.11807   2.11809   2.17598   2.29763
 Alpha virt. eigenvalues --    2.83876   2.88858   2.88900   2.95063   2.95109
 Alpha virt. eigenvalues --    3.03151   3.03621   3.03626   3.04289   3.06006
 Alpha virt. eigenvalues --    3.25937   3.25976   3.33703   3.35468   3.35474
 Alpha virt. eigenvalues --    3.40882   3.40888   3.41737   3.43902   3.44182
 Alpha virt. eigenvalues --    3.47114   3.47116   3.52404   3.52422   3.56756
 Alpha virt. eigenvalues --    3.56768   3.66820   3.67483   3.67508   3.69158
 Alpha virt. eigenvalues --    3.76760   3.76762   3.78084   3.78089   3.79918
 Alpha virt. eigenvalues --    3.83263   3.85779   4.06349   4.06361   4.07335
 Alpha virt. eigenvalues --    4.11630   4.11679   4.18740   4.18754   4.18758
 Alpha virt. eigenvalues --    4.22441   4.22456   4.27489   4.49843   4.60512
 Alpha virt. eigenvalues --    4.60533   4.61628   4.61630   4.62855   4.62862
 Alpha virt. eigenvalues --    4.71697   4.72680   4.72713   4.76764   4.84641
 Alpha virt. eigenvalues --    4.87366   4.92546   5.05629   5.05667   5.06768
 Alpha virt. eigenvalues --    5.06798   5.13097   5.13108   5.16124   5.16143
 Alpha virt. eigenvalues --    5.24284   5.24310   5.24698   5.24717   5.30769
 Alpha virt. eigenvalues --    5.44236   6.08845   6.14822   6.25367   6.25388
 Alpha virt. eigenvalues --    6.29400   6.29419   6.39963   6.46119  16.09796
 Alpha virt. eigenvalues --   16.54362
  Beta  occ. eigenvalues --  -10.29746 -10.28920  -0.78544  -0.73920  -0.51083
  Beta  occ. eigenvalues --   -0.51077  -0.48901  -0.48896  -0.30546
  Beta virt. eigenvalues --    0.01739   0.03292   0.04629   0.04629   0.05875
  Beta virt. eigenvalues --    0.07013   0.07013   0.10749   0.11903   0.11904
  Beta virt. eigenvalues --    0.13074   0.14184   0.14184   0.15056   0.16551
  Beta virt. eigenvalues --    0.19603   0.19605   0.22800   0.22803   0.24585
  Beta virt. eigenvalues --    0.24586   0.28473   0.29413   0.30912   0.30914
  Beta virt. eigenvalues --    0.31795   0.34179   0.35377   0.35378   0.35881
  Beta virt. eigenvalues --    0.37529   0.37532   0.37587   0.38733   0.39532
  Beta virt. eigenvalues --    0.39848   0.39850   0.41236   0.41238   0.42001
  Beta virt. eigenvalues --    0.42004   0.42058   0.44951   0.44953   0.47541
  Beta virt. eigenvalues --    0.47542   0.48858   0.50148   0.50148   0.58430
  Beta virt. eigenvalues --    0.66832   0.71224   0.71367   0.71371   0.71717
  Beta virt. eigenvalues --    0.71720   0.77431   0.77434   0.78525   0.78535
  Beta virt. eigenvalues --    0.78550   0.81966   0.82087   0.83105   0.83458
  Beta virt. eigenvalues --    0.83477   0.85405   0.85407   0.85928   0.90526
  Beta virt. eigenvalues --    0.90527   0.92072   0.94366   0.94377   0.96676
  Beta virt. eigenvalues --    0.98469   1.04349   1.04365   1.05164   1.05168
  Beta virt. eigenvalues --    1.06561   1.06570   1.07400   1.08590   1.13877
  Beta virt. eigenvalues --    1.14405   1.14408   1.15157   1.15162   1.16174
  Beta virt. eigenvalues --    1.16186   1.21850   1.26200   1.26213   1.27298
  Beta virt. eigenvalues --    1.27316   1.39028   1.43209   1.43219   1.43223
  Beta virt. eigenvalues --    1.46281   1.49031   1.49046   1.51450   1.51873
  Beta virt. eigenvalues --    1.51882   1.52869   1.53163   1.53190   1.54030
  Beta virt. eigenvalues --    1.56469   1.56502   1.61310   1.62463   1.67573
  Beta virt. eigenvalues --    1.67589   1.71415   1.81328   1.81481   1.81490
  Beta virt. eigenvalues --    1.82130   1.82137   1.86746   1.90503   1.97042
  Beta virt. eigenvalues --    1.97046   2.04749   2.04758   2.10026   2.10345
  Beta virt. eigenvalues --    2.10367   2.11812   2.11817   2.17598   2.29760
  Beta virt. eigenvalues --    2.83859   2.88854   2.88895   2.95062   2.95108
  Beta virt. eigenvalues --    3.03155   3.03632   3.03638   3.04273   3.06028
  Beta virt. eigenvalues --    3.25937   3.25976   3.33714   3.35457   3.35464
  Beta virt. eigenvalues --    3.40881   3.40889   3.41744   3.43891   3.44194
  Beta virt. eigenvalues --    3.47113   3.47113   3.52398   3.52420   3.56758
  Beta virt. eigenvalues --    3.56770   3.66809   3.67488   3.67516   3.69158
  Beta virt. eigenvalues --    3.76760   3.76763   3.78086   3.78092   3.79908
  Beta virt. eigenvalues --    3.83263   3.85791   4.06366   4.06378   4.07331
  Beta virt. eigenvalues --    4.11615   4.11663   4.18718   4.18733   4.18762
  Beta virt. eigenvalues --    4.22459   4.22475   4.27490   4.49842   4.60516
  Beta virt. eigenvalues --    4.60536   4.61620   4.61622   4.62860   4.62867
  Beta virt. eigenvalues --    4.71697   4.72680   4.72713   4.76765   4.84665
  Beta virt. eigenvalues --    4.87344   4.92545   5.05630   5.05669   5.06764
  Beta virt. eigenvalues --    5.06794   5.13062   5.13073   5.16178   5.16196
  Beta virt. eigenvalues --    5.24346   5.24369   5.24622   5.24642   5.30769
  Beta virt. eigenvalues --    5.44237   6.08838   6.14828   6.25363   6.25384
  Beta virt. eigenvalues --    6.29405   6.29423   6.39961   6.46122  16.09796
  Beta virt. eigenvalues --   16.54362
          Condensed to atoms (all electrons):
               1          2          3          4          5          6
     1  C    5.994695   0.332620   0.332638   0.332596   0.096968   0.002665
     2  H    0.332620   0.277985   0.011824   0.011821   0.002851  -0.000925
     3  H    0.332638   0.011824   0.277939   0.011817   0.002849  -0.001130
     4  H    0.332596   0.011821   0.011817   0.277966   0.002872  -0.000923
     5  C    0.096968   0.002851   0.002849   0.002872   5.995143   0.332706
     6  H    0.002665  -0.000925  -0.001130  -0.000923   0.332706   0.277866
     7  H    0.002698  -0.000923  -0.000923  -0.001130   0.332591   0.011822
     8  H    0.002710  -0.001130  -0.000923  -0.000923   0.332600   0.011809
               7          8
     1  C    0.002698   0.002710
     2  H   -0.000923  -0.001130
     3  H   -0.000923  -0.000923
     4  H   -0.001130  -0.000923
     5  C    0.332591   0.332600
     6  H    0.011822   0.011809
     7  H    0.277834   0.011820
     8  H    0.011820   0.277876
          Atomic-Atomic Spin Densities.
               1          2          3          4          5          6
     1  C   -0.818582   0.000201   0.000227   0.000251  -0.000231   0.006828
     2  H    0.000201   0.025870  -0.001192  -0.001194  -0.006830   0.000010
     3  H    0.000227  -0.001192   0.025879  -0.001196  -0.006820   0.000009
     4  H    0.000251  -0.001194  -0.001196   0.025880  -0.006821   0.000012
     5  C   -0.000231  -0.006830  -0.006820  -0.006821   0.818181  -0.000023
     6  H    0.006828   0.000010   0.000009   0.000012  -0.000023  -0.026034
     7  H    0.006819   0.000009   0.000010   0.000009   0.000028   0.001137
     8  H    0.006821   0.000006   0.000009   0.000010   0.000008   0.001143
               7          8
     1  C    0.006819   0.006821
     2  H    0.000009   0.000006
     3  H    0.000010   0.000009
     4  H    0.000009   0.000010
     5  C    0.000028   0.000008
     6  H    0.001137   0.001143
     7  H   -0.025976   0.001140
     8  H    0.001140  -0.025981
 Mulliken charges and spin densities:
               1          2
     1  C   -1.097589  -0.797666
     2  H    0.365878   0.016880
     3  H    0.365908   0.016927
     4  H    0.365903   0.016952
     5  C   -1.098579   0.797493
     6  H    0.366109  -0.016918
     7  H    0.366210  -0.016823
     8  H    0.366160  -0.016845
 Sum of Mulliken charges =  -0.00000   0.00000
 Mulliken charges and spin densities with hydrogens summed into heavy atoms:
               1          2
     1  C    0.000099  -0.746907
     5  C   -0.000099   0.746907
 Electronic spatial extent (au):  <R**2>=            277.2002
 Charge=             -0.0000 electrons
 Dipole moment (field-independent basis, Debye):
    X=              0.0001    Y=             -0.0041    Z=              0.0001  Tot=              0.0041
 Quadrupole moment (field-independent basis, Debye-Ang):
   XX=            -14.4173   YY=            -18.2024   ZZ=            -14.4160
   XY=              0.0070   XZ=              0.0006   YZ=              0.0022
 Traceless Quadrupole moment (field-independent basis, Debye-Ang):
   XX=              1.2612   YY=             -2.5238   ZZ=              1.2626
   XY=              0.0070   XZ=              0.0006   YZ=              0.0022
 Octapole moment (field-independent basis, Debye-Ang**2):
  XXX=             -0.0296  YYY=             70.9995  ZZZ=             -0.0603  XYY=             -0.0479
  XXY=             18.7439  XXZ=             -0.0213  XZZ=             -0.0622  YZZ=             18.7402
  YYZ=             -0.0285  XYZ=              0.0007
 Hexadecapole moment (field-independent basis, Debye-Ang**3):
 XXXX=            -29.7275 YYYY=           -392.7033 ZZZZ=            -29.7378 XXXY=              0.0778
 XXXZ=              0.0082 YYYX=              0.2862 YYYZ=              0.2061 ZZZX=             -0.0031
 ZZZY=              2.5304 XXYY=            -58.7768 XXZZ=             -9.9040 YYZZ=            -58.7607
 XXYZ=             -2.3188 YYXZ=             -0.0108 ZZXY=              0.1587
 N-N= 3.505976955849D+01 E-N=-2.538905007878D+02  KE= 7.904843277914D+01
                          Isotropic Fermi Contact Couplings
        Atom                 a.u.       MegaHertz       Gauss      10(-4) cm-1
     1  C(13)              0.00144       0.80851       0.28850       0.26969
     2  H(1)               0.01156      25.83107       9.21717       8.61632
     3  H(1)               0.01155      25.82391       9.21461       8.61393
     4  H(1)               0.01156      25.84209       9.22110       8.61999
     5  C(13)             -0.00123      -0.68956      -0.24605      -0.23001
     6  H(1)              -0.01155     -25.82290      -9.21425      -8.61359
     7  H(1)              -0.01156     -25.82860      -9.21629      -8.61550
     8  H(1)              -0.01156     -25.83511      -9.21861      -8.61767
 --------------------------------------------------------
       Center         ----  Spin Dipole Couplings  ----
                      3XX-RR        3YY-RR        3ZZ-RR
 --------------------------------------------------------
     1   Atom        0.427551     -0.855137      0.427586
     2   Atom        0.052555      0.006209     -0.058764
     3   Atom       -0.030977      0.006195      0.024782
     4   Atom       -0.030881      0.006186      0.024695
     5   Atom       -0.427555      0.855163     -0.427608
     6   Atom        0.029540     -0.006164     -0.023376
     7   Atom        0.032222     -0.006160     -0.026062
     8   Atom       -0.052553     -0.006187      0.058741
 --------------------------------------------------------
                        XY            XZ            YZ
 --------------------------------------------------------
     1   Atom        0.002152      0.000007      0.001240
     2   Atom        0.000084     -0.000002      0.004434
     3   Atom        0.003886      0.048174     -0.002148
     4   Atom       -0.003999     -0.048212     -0.002318
     5   Atom       -0.002326      0.000002     -0.000604
     6   Atom       -0.003702     -0.048981      0.002138
     7   Atom        0.003883      0.047421      0.002209
     8   Atom       -0.000153      0.001540     -0.004312
 --------------------------------------------------------


 ---------------------------------------------------------------------------------
              Anisotropic Spin Dipole Couplings in Principal Axis System
 ---------------------------------------------------------------------------------

       Atom             a.u.   MegaHertz   Gauss  10(-4) cm-1        Axes

              Baa    -0.8551  -114.752   -40.946   -38.277 -0.0017  1.0000 -0.0010
     1 C(13)  Bbb     0.4276    57.373    20.472    19.138  0.9668  0.0014 -0.2557
              Bcc     0.4276    57.378    20.474    19.139  0.2557  0.0014  0.9668
 
              Baa    -0.0591   -31.514   -11.245   -10.512  0.0001 -0.0678  0.9977
     2 H(1)   Bbb     0.0065     3.474     1.239     1.159 -0.0018  0.9977  0.0678
              Bcc     0.0526    28.041    10.006     9.353  1.0000  0.0018  0.0001
 
              Baa    -0.0591   -31.511   -11.244   -10.511  0.8643 -0.0679 -0.4984
     3 H(1)   Bbb     0.0065     3.466     1.237     1.156  0.0579  0.9977 -0.0354
              Bcc     0.0526    28.045    10.007     9.355  0.4996  0.0017  0.8662
 
              Baa    -0.0591   -31.515   -11.245   -10.512  0.8637  0.0707  0.4991
     4 H(1)   Bbb     0.0065     3.475     1.240     1.159 -0.0612  0.9975 -0.0352
              Bcc     0.0526    28.040    10.005     9.353 -0.5003 -0.0001  0.8658
 
              Baa    -0.4276   -57.381   -20.475   -19.140 -0.0111  0.0005  0.9999
     5 C(13)  Bbb    -0.4276   -57.374   -20.473   -19.138  0.9999  0.0018  0.0111
              Bcc     0.8552   114.755    40.948    38.278 -0.0018  1.0000 -0.0005
 
              Baa    -0.0526   -28.059   -10.012    -9.359  0.5123  0.0013  0.8588
     6 H(1)   Bbb    -0.0064    -3.438    -1.227    -1.147  0.0555  0.9979 -0.0346
              Bcc     0.0590    31.497    11.239    10.506  0.8570 -0.0654 -0.5111
 
              Baa    -0.0526   -28.054   -10.010    -9.358 -0.4880 -0.0007  0.8728
     7 H(1)   Bbb    -0.0065    -3.450    -1.231    -1.151 -0.0600  0.9977 -0.0327
              Bcc     0.0590    31.504    11.241    10.509  0.8708  0.0683  0.4869
 
              Baa    -0.0526   -28.052   -10.009    -9.357  0.9999  0.0020 -0.0138
     8 H(1)   Bbb    -0.0065    -3.453    -1.232    -1.152 -0.0011  0.9978  0.0660
              Bcc     0.0590    31.505    11.242    10.509  0.0139 -0.0660  0.9977
 

 ---------------------------------------------------------------------------------


 Test job not archived.
 1\1\GINC-NODE-6-10\POpt\UwB97XD\Aug-CC-pVTZ\C2H6\CAVALLOTTI\27-May-202
 3\1\\# uwb97xd/aug-cc-pvtz opt=(noeig,intern,maxcyc=50) # int=ultrafin
 e nosym iop(7/33=1) guess=(mix,always)\\geom 0\\0,1\C\H,1,R1\H,1,R2,2,
 A2\H,1,R3,2,A3,3,D3,0\C,1,RTS,2,AABS1,3,BABS1,0\H,5,R21,1,AABS2,2,BABS
 2,0\H,5,R22,6,A22,1,BABS3,0\H,5,R23,6,A23,7,D23,0\\BABS3=90.10813945\B
 ABS2=59.1873805\AABS2=90.10382845\BABS1=89.93110773\AABS1=89.93888115\
 D3=179.8076\R21=1.0782\R22=1.0782\R23=1.0782\A22=119.9721\A23=120.0207
 \D23=179.8076\A3=120.0207\A2=119.9721\R3=1.0782\R2=1.0782\R1=1.0782\RT
 S=2.6\\Version=EM64L-G09RevD.01\HF=-79.6978951\S2=0.545116\S2-1=0.\S2A
 =0.014212\RMSD=1.774e-09\RMSF=1.060e-02\Dipole=0.0000477,-0.0016002,0.
 0000412\Quadrupole=0.9376974,-1.8763846,0.9386871,0.0052015,0.000475,0
 .0016449\PG=C01 [X(C2H6)]\\@


 The most important thing in communication is to hear what isn't being said.
 -- Peter F. Drucker
 Job cpu time:       0 days  1 hours 24 minutes  2.3 seconds.
 File lengths (MBytes):  RWF=    106 Int=      0 D2E=      0 Chk=      7 Scr=      1
 Normal termination of Gaussian 09 at Sat May 27 09:28:03 2023.
