 Entering Gaussian System, Link 0=g09
 Input=geom.com
 Output=geom.log
 Initial command:
 /software/cinetica/g09d1/g09d01/d01/build-node-6-2-59348/src/main/l1.exe "/scratch/cc/139120/Gau-182019.inp" -scrdir="/scratch/cc/139120/"
 Entering Link 1 = /software/cinetica/g09d1/g09d01/d01/build-node-6-2-59348/src/main/l1.exe PID=    182020.
  
 Copyright (c) 1988,1990,1992,1993,1995,1998,2003,2009,2013,
            Gaussian, Inc.  All Rights Reserved.
  
 This is part of the Gaussian(R) 09 program.  It is based on
 the Gaussian(R) 03 system (copyright 2003, Gaussian, Inc.),
 the Gaussian(R) 98 system (copyright 1998, Gaussian, Inc.),
 the Gaussian(R) 94 system (copyright 1995, Gaussian, Inc.),
 the Gaussian 92(TM) system (copyright 1992, Gaussian, Inc.),
 the Gaussian 90(TM) system (copyright 1990, Gaussian, Inc.),
 the Gaussian 88(TM) system (copyright 1988, Gaussian, Inc.),
 the Gaussian 86(TM) system (copyright 1986, Carnegie Mellon
 University), and the Gaussian 82(TM) system (copyright 1983,
 Carnegie Mellon University). Gaussian is a federally registered
 trademark of Gaussian, Inc.
  
 This software contains proprietary and confidential information,
 including trade secrets, belonging to Gaussian, Inc.
  
 This software is provided under written license and may be
 used, copied, transmitted, or stored only in accord with that
 written license.
  
 The following legend is applicable only to US Government
 contracts under FAR:
  
                    RESTRICTED RIGHTS LEGEND
  
 Use, reproduction and disclosure by the US Government is
 subject to restrictions as set forth in subparagraphs (a)
 and (c) of the Commercial Computer Software - Restricted
 Rights clause in FAR 52.227-19.
  
 Gaussian, Inc.
 340 Quinnipiac St., Bldg. 40, Wallingford CT 06492
  
  
 ---------------------------------------------------------------
 Warning -- This program may not be used in any manner that
 competes with the business of Gaussian, Inc. or will provide
 assistance to any competitor of Gaussian, Inc.  The licensee
 of this program is prohibited from giving any competitor of
 Gaussian, Inc. access to this program.  By using this program,
 the user acknowledges that Gaussian, Inc. is engaged in the
 business of creating and licensing software in the field of
 computational chemistry and represents and warrants to the
 licensee that it is not a competitor of Gaussian, Inc. and that
 it will not use this program in any manner prohibited above.
 ---------------------------------------------------------------
  

 Cite this work as:
 Gaussian 09, Revision D.01,
 M. J. Frisch, G. W. Trucks, H. B. Schlegel, G. E. Scuseria, 
 M. A. Robb, J. R. Cheeseman, G. Scalmani, V. Barone, B. Mennucci, 
 G. A. Petersson, H. Nakatsuji, M. Caricato, X. Li, H. P. Hratchian, 
 A. F. Izmaylov, J. Bloino, G. Zheng, J. L. Sonnenberg, M. Hada, 
 M. Ehara, K. Toyota, R. Fukuda, J. Hasegawa, M. Ishida, T. Nakajima, 
 Y. Honda, O. Kitao, H. Nakai, T. Vreven, J. A. Montgomery, Jr., 
 J. E. Peralta, F. Ogliaro, M. Bearpark, J. J. Heyd, E. Brothers, 
 K. N. Kudin, V. N. Staroverov, T. Keith, R. Kobayashi, J. Normand, 
 K. Raghavachari, A. Rendell, J. C. Burant, S. S. Iyengar, J. Tomasi, 
 M. Cossi, N. Rega, J. M. Millam, M. Klene, J. E. Knox, J. B. Cross, 
 V. Bakken, C. Adamo, J. Jaramillo, R. Gomperts, R. E. Stratmann, 
 O. Yazyev, A. J. Austin, R. Cammi, C. Pomelli, J. W. Ochterski, 
 R. L. Martin, K. Morokuma, V. G. Zakrzewski, G. A. Voth, 
 P. Salvador, J. J. Dannenberg, S. Dapprich, A. D. Daniels, 
 O. Farkas, J. B. Foresman, J. V. Ortiz, J. Cioslowski, 
 and D. J. Fox, Gaussian, Inc., Wallingford CT, 2013.
 
 ******************************************
 Gaussian 09:  EM64L-G09RevD.01 24-Apr-2013
                27-May-2023 
 ******************************************
 %mem=400MW
 %chk=tmp
 %NProcShared= 32
 Will use up to   32 processors via shared memory.
 ----------------------------------------------------------------------
 # uwb97xd/aug-cc-pvtz opt=(noeig,intern,maxcyc=50) # int=ultrafine nos
 ym freq iop(7/33=1) guess=(mix,always)
 ----------------------------------------------------------------------
 1/6=50,10=7,11=1,14=-1,18=40,26=4,38=1/1,3;
 2/12=2,15=1,17=6,18=5,29=3,40=1/2;
 3/5=16,6=1,7=10,11=2,16=1,25=1,30=1,71=1,74=-58,75=-5,116=2/1,2,3;
 4/13=-1/1;
 5/5=2,38=5/2;
 6/7=2,8=2,9=2,10=2,28=1/1;
 7/29=1,30=1,33=1/1,2,3,16;
 1/6=50,10=7,11=1,14=-1,18=40,26=4/3(2);
 2/15=1,29=3/2;
 99//99;
 2/15=1,29=3/2;
 3/5=16,6=1,7=10,11=2,16=1,25=1,30=1,71=1,74=-58,75=-5,116=2/1,2,3;
 4/13=-1/1;
 5/5=2,38=5/2;
 7/30=1,33=1/1,2,3,16;
 1/6=50,11=1,14=-1,18=40,26=4/3(-5);
 2/15=1,29=3/2;
 6/7=2,8=2,9=2,10=2,19=2,28=1/1;
 99/9=1/99;
 ------
 geom 0
 ------
 Symbolic Z-matrix:
 Charge =  0 Multiplicity = 1
 C1
 H2                   C1   R1
 H3                   C1   R2       H2   A2
 H4                   C1   R3       H2   A3       H3   D3       0
 C21                  C1   BB       H2   ANG1     H3   DH1      0
 H22                  C21  R21      C1   ANG2     H2   DH2      0
 H23                  C21  R22      H22  A22      C1   DH3      0
 H24                  C21  R23      H22  A23      H23  D23      0
       Variables:
  R1                    1.0834                   
  R2                    1.0835                   
  R3                    1.0835                   
  A2                  112.8034                   
  A3                  112.8036                   
  D3                  230.784                    
  R21                   1.0834                   
  R22                   1.0835                   
  R23                   1.0835                   
  A22                 112.8017                   
  A23                 112.8053                   
  D23                 129.2159                   
  ANG2                105.9023                   
  DH3                 115.383                    
  DH2                  60.0096                   
  DH1                 115.3954                   
  ANG1                105.8979                   
       Constants:
  BB                    2.6                      
 

 GradGradGradGradGradGradGradGradGradGradGradGradGradGradGradGradGradGrad
 Berny optimization.
 Initialization pass.
                       ----------------------------
                       !    Initial Parameters    !
                       ! (Angstroms and Degrees)  !
 ----------------------                            ----------------------
 !      Name          Value   Derivative information (Atomic Units)     !
 ------------------------------------------------------------------------
 !       R1          1.0834   estimate D2E/DX2                          !
 !       R2          1.0835   estimate D2E/DX2                          !
 !       R3          1.0835   estimate D2E/DX2                          !
 !       A2        112.8034   estimate D2E/DX2                          !
 !       A3        112.8036   estimate D2E/DX2                          !
 !       D3        230.784    estimate D2E/DX2                          !
 !       R21         1.0834   estimate D2E/DX2                          !
 !       R22         1.0835   estimate D2E/DX2                          !
 !       R23         1.0835   estimate D2E/DX2                          !
 !       A22       112.8017   estimate D2E/DX2                          !
 !       A23       112.8053   estimate D2E/DX2                          !
 !       D23       129.2159   estimate D2E/DX2                          !
 !      ANG2       105.9023   estimate D2E/DX2                          !
 !       DH3       115.383    estimate D2E/DX2                          !
 !       DH2        60.0096   estimate D2E/DX2                          !
 !       DH1       115.3954   estimate D2E/DX2                          !
 !      ANG1       105.8979   estimate D2E/DX2                          !
 !       BB          2.6      Frozen                                    !
 ------------------------------------------------------------------------
 Trust Radius=3.00D-01 FncErr=1.00D-07 GrdErr=1.00D-06
 Number of steps in this run=     50 maximum allowed number of steps=    100.
 GradGradGradGradGradGradGradGradGradGradGradGradGradGradGradGradGradGrad

 ---------------------------------------------------------------------------------------------------
                            Z-MATRIX (ANGSTROMS AND DEGREES)
   CD    Cent   Atom    N1       Length/X        N2       Alpha/Y        N3        Beta/Z          J
 ---------------------------------------------------------------------------------------------------
      1      1  C 
      2      2  H        1   1.083400(     1)
      3      3  H        1   1.083500(     2)      2  112.803(     8)
      4      4  H        1   1.083500(     3)      2  112.804(     9)      3  230.784(    14)      0
      5      5  C        1   2.600000(     4)      2  105.898(    10)      3  115.395(    15)      0
      6      6  H        5   1.083400(     5)      1  105.902(    11)      2   60.010(    16)      0
      7      7  H        5   1.083500(     6)      6  112.802(    12)      1  115.383(    17)      0
      8      8  H        5   1.083500(     7)      6  112.805(    13)      7  129.216(    18)      0
 ---------------------------------------------------------------------------------------------------
                         Z-Matrix orientation:                         
 ---------------------------------------------------------------------
 Center     Atomic      Atomic             Coordinates (Angstroms)
 Number     Number       Type             X           Y           Z
 ---------------------------------------------------------------------
      1          6           0        0.000000    0.000000    0.000000
      2          1           0        0.000000    0.000000    1.083400
      3          1           0        0.998814    0.000000   -0.419932
      4          1           0       -0.631495    0.773848   -0.419936
      5          6           0       -1.072394   -2.258924   -0.712202
      6          1           0       -2.071246   -2.258691   -0.292619
      7          1           0       -0.440756   -3.032692   -0.292333
      8          1           0       -1.072021   -2.259303   -1.795702
 ---------------------------------------------------------------------
                    Distance matrix (angstroms):
                    1          2          3          4          5
     1  C    0.000000
     2  H    1.083400   0.000000
     3  H    1.083500   1.804893   0.000000
     4  H    1.083500   1.804895   1.804646   0.000000
     5  C    2.600000   3.078466   3.078646   3.078558   0.000000
     6  H    3.078534   3.359341   3.813550   3.359373   1.083400
     7  H    3.078465   3.359186   3.359444   3.813451   1.083500
     8  H    3.078673   3.813517   3.359397   3.359583   1.083500
                    6          7          8
     6  H    0.000000
     7  H    1.804875   0.000000
     8  H    1.804912   1.804645   0.000000
 Symmetry turned off by external request.
 Stoichiometry    C2H6
 Framework group  C1[X(C2H6)]
 Deg. of freedom    18
 Full point group                 C1      NOp   1
 Rotational constants (GHZ):     76.9730380      8.5279091      8.5278130
 Standard basis: Aug-CC-pVTZ (5D, 7F)
   230 basis functions,   306 primitive gaussians,   260 cartesian basis functions
     9 alpha electrons        9 beta electrons
       nuclear repulsion energy        34.2186036008 Hartrees.
 NAtoms=    8 NActive=    8 NUniq=    8 SFac= 1.00D+00 NAtFMM=   60 NAOKFM=F Big=F
 Integral buffers will be    131072 words long.
 Raffenetti 2 integral format.
 Two-electron integral symmetry is turned off.
 Nuclear repulsion after empirical dispersion term =       34.2168559109 Hartrees.
 One-electron integrals computed using PRISM.
 NBasis=   230 RedAO= T EigKep=  7.73D-05  NBF=   230
 NBsUse=   230 1.00D-06 EigRej= -1.00D+00 NBFU=   230
 ExpMin= 2.53D-02 ExpMax= 8.24D+03 ExpMxC= 2.81D+02 IAcc=3 IRadAn=         5 AccDes= 0.00D+00
 Harris functional with IExCor= 4639 and IRadAn=       5 diagonalized for initial guess.
 HarFok:  IExCor= 4639 AccDes= 0.00D+00 IRadAn=         5 IDoV= 1 UseB2=F ITyADJ=14
 ICtDFT=  3500011 ScaDFX=  1.000000  1.000000  1.000000  1.000000
 FoFCou: FMM=F IPFlag=           0 FMFlag=      100000 FMFlg1=           0
         NFxFlg=           0 DoJE=T BraDBF=F KetDBF=T FulRan=T
         wScrn=  0.000000 ICntrl=     500 IOpCl=  0 I1Cent=   200000004 NGrid=           0
         NMat0=    1 NMatS0=      1 NMatT0=    0 NMatD0=    1 NMtDS0=    0 NMtDT0=    0
 Symmetry not used in FoFCou.
 Mixing orbitals, IMix= 1 IMixAn=  0 NRI=1 NE=    9 Coef=  7.07106781D-01  7.07106781D-01
 Mixing orbitals, IMix= 1 IMixAn=  0 NRI=1 NE=    9 Coef= -7.07106781D-01  7.07106781D-01
 Initial guess <Sx>= 0.0000 <Sy>= 0.0000 <Sz>= 0.0000 <S**2>= 1.0000 S= 0.6180
 Requested convergence on RMS density matrix=1.00D-08 within 128 cycles.
 Requested convergence on MAX density matrix=1.00D-06.
 Requested convergence on             energy=1.00D-06.
 No special actions if energy rises.
 SCF Done:  E(UwB97XD) =  -79.6983548322     A.U. after   12 cycles
            NFock= 12  Conv=0.73D-08     -V/T= 2.0096
 <Sx>= 0.0000 <Sy>= 0.0000 <Sz>= 0.0000 <S**2>= 0.3642 S= 0.2837
 <L.S>=  0.00000000000    
 Annihilation of the first spin contaminant:
 S**2 before annihilation     0.3642,   after     0.0047

 **********************************************************************

            Population analysis using the SCF density.

 **********************************************************************

 Alpha  occ. eigenvalues --  -10.30572 -10.29849  -0.78217  -0.75051  -0.49523
 Alpha  occ. eigenvalues --   -0.49517  -0.48024  -0.48018  -0.32591
 Alpha virt. eigenvalues --    0.01153   0.03361   0.04745   0.04745   0.05421
 Alpha virt. eigenvalues --    0.06798   0.06798   0.10709   0.12821   0.12822
 Alpha virt. eigenvalues --    0.13318   0.14163   0.14163   0.14303   0.16037
 Alpha virt. eigenvalues --    0.20141   0.20142   0.21258   0.21259   0.24277
 Alpha virt. eigenvalues --    0.24278   0.29902   0.30562   0.31739   0.31740
 Alpha virt. eigenvalues --    0.33057   0.33088   0.33817   0.33817   0.34696
 Alpha virt. eigenvalues --    0.34696   0.36165   0.37651   0.38421   0.38426
 Alpha virt. eigenvalues --    0.40050   0.40052   0.40589   0.40591   0.42839
 Alpha virt. eigenvalues --    0.45297   0.45298   0.45691   0.45694   0.47451
 Alpha virt. eigenvalues --    0.48693   0.48696   0.49818   0.49818   0.62444
 Alpha virt. eigenvalues --    0.67401   0.67404   0.69367   0.70100   0.70104
 Alpha virt. eigenvalues --    0.72407   0.76771   0.76772   0.77863   0.78171
 Alpha virt. eigenvalues --    0.78173   0.80367   0.82687   0.85022   0.89186
 Alpha virt. eigenvalues --    0.89187   0.91826   0.91870   0.91870   0.93075
 Alpha virt. eigenvalues --    0.94285   0.94285   0.94809   0.94813   0.97391
 Alpha virt. eigenvalues --    0.98493   0.98496   0.98754   1.04419   1.04760
 Alpha virt. eigenvalues --    1.04760   1.07895   1.07896   1.08681   1.08683
 Alpha virt. eigenvalues --    1.10837   1.13373   1.14796   1.14799   1.17331
 Alpha virt. eigenvalues --    1.17334   1.18225   1.21570   1.21571   1.23293
 Alpha virt. eigenvalues --    1.27011   1.27011   1.36734   1.38391   1.38395
 Alpha virt. eigenvalues --    1.45666   1.45667   1.51911   1.51914   1.52254
 Alpha virt. eigenvalues --    1.52310   1.54857   1.54860   1.54934   1.55835
 Alpha virt. eigenvalues --    1.59137   1.61780   1.63244   1.63249   1.64808
 Alpha virt. eigenvalues --    1.64809   1.65782   1.75498   1.76349   1.77091
 Alpha virt. eigenvalues --    1.77097   1.80060   1.80065   1.90869   1.90872
 Alpha virt. eigenvalues --    2.01192   2.01201   2.02233   2.07575   2.07576
 Alpha virt. eigenvalues --    2.10315   2.10319   2.12766   2.13651   2.31938
 Alpha virt. eigenvalues --    2.77180   2.84975   2.96055   3.00147   3.00148
 Alpha virt. eigenvalues --    3.00433   3.00436   3.04614   3.17661   3.17665
 Alpha virt. eigenvalues --    3.22041   3.22043   3.33213   3.34459   3.34675
 Alpha virt. eigenvalues --    3.34676   3.37013   3.38077   3.38080   3.39999
 Alpha virt. eigenvalues --    3.49104   3.49105   3.52580   3.52582   3.61271
 Alpha virt. eigenvalues --    3.61276   3.62904   3.70916   3.70921   3.77258
 Alpha virt. eigenvalues --    3.77260   3.78679   3.78683   3.79454   3.80438
 Alpha virt. eigenvalues --    3.83365   3.86728   3.91909   3.91912   3.98725
 Alpha virt. eigenvalues --    3.98727   4.02190   4.20103   4.22190   4.22194
 Alpha virt. eigenvalues --    4.27107   4.27114   4.27762   4.51059   4.51062
 Alpha virt. eigenvalues --    4.52716   4.52721   4.57979   4.58417   4.65510
 Alpha virt. eigenvalues --    4.67919   4.67923   4.68817   4.68828   4.79508
 Alpha virt. eigenvalues --    4.87427   4.93578   4.93604   4.94220   4.94246
 Alpha virt. eigenvalues --    5.00275   5.15911   5.15924   5.20358   5.22060
 Alpha virt. eigenvalues --    5.22076   5.34042   5.55825   5.56761   5.69318
 Alpha virt. eigenvalues --    5.69340   5.71574   5.71620   5.71640   5.85158
 Alpha virt. eigenvalues --    6.30963   6.30980   6.34930   6.34948  15.97178
 Alpha virt. eigenvalues --   16.09321
  Beta  occ. eigenvalues --  -10.30572 -10.29849  -0.78217  -0.75051  -0.49523
  Beta  occ. eigenvalues --   -0.49517  -0.48024  -0.48018  -0.32591
  Beta virt. eigenvalues --    0.01153   0.03361   0.04745   0.04745   0.05421
  Beta virt. eigenvalues --    0.06798   0.06798   0.10709   0.12821   0.12822
  Beta virt. eigenvalues --    0.13318   0.14163   0.14163   0.14303   0.16037
  Beta virt. eigenvalues --    0.20141   0.20142   0.21258   0.21259   0.24277
  Beta virt. eigenvalues --    0.24278   0.29902   0.30562   0.31739   0.31740
  Beta virt. eigenvalues --    0.33057   0.33088   0.33817   0.33817   0.34696
  Beta virt. eigenvalues --    0.34696   0.36165   0.37651   0.38421   0.38426
  Beta virt. eigenvalues --    0.40050   0.40052   0.40589   0.40591   0.42839
  Beta virt. eigenvalues --    0.45297   0.45298   0.45691   0.45694   0.47451
  Beta virt. eigenvalues --    0.48693   0.48696   0.49818   0.49818   0.62444
  Beta virt. eigenvalues --    0.67401   0.67404   0.69367   0.70100   0.70104
  Beta virt. eigenvalues --    0.72407   0.76771   0.76772   0.77863   0.78171
  Beta virt. eigenvalues --    0.78173   0.80367   0.82687   0.85022   0.89186
  Beta virt. eigenvalues --    0.89187   0.91826   0.91870   0.91870   0.93075
  Beta virt. eigenvalues --    0.94285   0.94285   0.94809   0.94813   0.97391
  Beta virt. eigenvalues --    0.98493   0.98496   0.98754   1.04419   1.04760
  Beta virt. eigenvalues --    1.04760   1.07895   1.07896   1.08681   1.08683
  Beta virt. eigenvalues --    1.10837   1.13373   1.14796   1.14799   1.17331
  Beta virt. eigenvalues --    1.17334   1.18225   1.21570   1.21571   1.23293
  Beta virt. eigenvalues --    1.27011   1.27011   1.36734   1.38391   1.38395
  Beta virt. eigenvalues --    1.45666   1.45667   1.51911   1.51914   1.52254
  Beta virt. eigenvalues --    1.52310   1.54857   1.54860   1.54934   1.55835
  Beta virt. eigenvalues --    1.59137   1.61780   1.63244   1.63249   1.64808
  Beta virt. eigenvalues --    1.64809   1.65782   1.75498   1.76349   1.77091
  Beta virt. eigenvalues --    1.77097   1.80060   1.80065   1.90869   1.90872
  Beta virt. eigenvalues --    2.01192   2.01201   2.02233   2.07575   2.07576
  Beta virt. eigenvalues --    2.10315   2.10319   2.12766   2.13651   2.31938
  Beta virt. eigenvalues --    2.77180   2.84975   2.96055   3.00144   3.00150
  Beta virt. eigenvalues --    3.00433   3.00436   3.04614   3.17661   3.17665
  Beta virt. eigenvalues --    3.22040   3.22044   3.33213   3.34459   3.34675
  Beta virt. eigenvalues --    3.34677   3.37013   3.38078   3.38080   3.39999
  Beta virt. eigenvalues --    3.49104   3.49105   3.52579   3.52582   3.61271
  Beta virt. eigenvalues --    3.61276   3.62904   3.70916   3.70921   3.77258
  Beta virt. eigenvalues --    3.77260   3.78679   3.78682   3.79454   3.80438
  Beta virt. eigenvalues --    3.83365   3.86728   3.91909   3.91912   3.98725
  Beta virt. eigenvalues --    3.98727   4.02190   4.20103   4.22190   4.22194
  Beta virt. eigenvalues --    4.27107   4.27114   4.27762   4.51059   4.51062
  Beta virt. eigenvalues --    4.52716   4.52721   4.57979   4.58417   4.65510
  Beta virt. eigenvalues --    4.67920   4.67922   4.68817   4.68828   4.79508
  Beta virt. eigenvalues --    4.87427   4.93578   4.93604   4.94220   4.94246
  Beta virt. eigenvalues --    5.00275   5.15911   5.15924   5.20358   5.22060
  Beta virt. eigenvalues --    5.22076   5.34042   5.55825   5.56761   5.69318
  Beta virt. eigenvalues --    5.69340   5.71574   5.71619   5.71640   5.85158
  Beta virt. eigenvalues --    6.30963   6.30981   6.34931   6.34947  15.97178
  Beta virt. eigenvalues --   16.09321
          Condensed to atoms (all electrons):
               1          2          3          4          5          6
     1  C    5.688284   0.362791   0.362737   0.362756   0.174622  -0.003483
     2  H    0.362791   0.302968   0.012445   0.012445  -0.003473  -0.000256
     3  H    0.362737   0.012445   0.302963   0.012450  -0.003482  -0.000223
     4  H    0.362756   0.012445   0.012450   0.302983  -0.003478  -0.000256
     5  C    0.174622  -0.003473  -0.003482  -0.003478   5.688285   0.362751
     6  H   -0.003483  -0.000256  -0.000223  -0.000256   0.362751   0.302937
     7  H   -0.003480  -0.000256  -0.000256  -0.000222   0.362749   0.012446
     8  H   -0.003469  -0.000222  -0.000256  -0.000256   0.362785   0.012444
               7          8
     1  C   -0.003480  -0.003469
     2  H   -0.000256  -0.000222
     3  H   -0.000256  -0.000256
     4  H   -0.000222  -0.000256
     5  C    0.362749   0.362785
     6  H    0.012446   0.012444
     7  H    0.302988   0.012451
     8  H    0.012451   0.302989
          Atomic-Atomic Spin Densities.
               1          2          3          4          5          6
     1  C    0.583702   0.015860   0.015883   0.015844   0.000000  -0.006836
     2  H    0.015860  -0.020844   0.000449   0.000450   0.006823  -0.000000
     3  H    0.015883   0.000449  -0.020819   0.000449   0.006829   0.000000
     4  H    0.015844   0.000450   0.000449  -0.020857   0.006824   0.000000
     5  C    0.000000   0.006823   0.006829   0.006824  -0.583702  -0.015901
     6  H   -0.006836  -0.000000   0.000000   0.000000  -0.015901   0.020814
     7  H   -0.006826  -0.000000   0.000000  -0.000000  -0.015845  -0.000448
     8  H   -0.006814  -0.000000   0.000000   0.000000  -0.015840  -0.000449
               7          8
     1  C   -0.006826  -0.006814
     2  H   -0.000000  -0.000000
     3  H    0.000000   0.000000
     4  H   -0.000000   0.000000
     5  C   -0.015845  -0.015840
     6  H   -0.000448  -0.000449
     7  H    0.020859  -0.000450
     8  H   -0.000450   0.020846
 Mulliken charges and spin densities:
               1          2
     1  C   -0.940757   0.610812
     2  H    0.313558   0.002737
     3  H    0.313621   0.002792
     4  H    0.313578   0.002711
     5  C   -0.940758  -0.610812
     6  H    0.313641  -0.002821
     7  H    0.313582  -0.002710
     8  H    0.313535  -0.002708
 Sum of Mulliken charges =  -0.00000  -0.00000
 Mulliken charges and spin densities with hydrogens summed into heavy atoms:
               1          2
     1  C    0.000000   0.619051
     5  C   -0.000000  -0.619051
 Electronic spatial extent (au):  <R**2>=            291.5887
 Charge=             -0.0000 electrons
 Dipole moment (field-independent basis, Debye):
    X=              0.0001    Y=             -0.0000    Z=              0.0000  Tot=              0.0001
 Quadrupole moment (field-independent basis, Debye-Ang):
   XX=            -14.7683   YY=            -14.2808   ZZ=            -14.8470
   XY=              0.2988   XZ=              0.0935   YZ=              0.1984
 Traceless Quadrupole moment (field-independent basis, Debye-Ang):
   XX=             -0.1363   YY=              0.3512   ZZ=             -0.2149
   XY=              0.2988   XZ=              0.0935   YZ=              0.1984
 Octapole moment (field-independent basis, Debye-Ang**2):
  XXX=             23.7531  YYY=             48.3898  ZZZ=             15.8634  XYY=              6.9830
  XXY=             16.3595  XXZ=              5.1593  XZZ=              7.8950  YZZ=             16.6277
  YYZ=              4.6359  XYZ=             -0.3184
 Hexadecapole moment (field-independent basis, Debye-Ang**3):
 XXXX=            -80.7205 YYYY=           -266.3187 ZZZZ=            -50.3034 XXXY=            -54.0776
 XXXZ=            -19.7014 YYYX=            -59.6506 YYYZ=            -39.6120 ZZZX=            -16.4582
 ZZZY=            -34.6630 XXYY=            -58.5997 XXZZ=            -23.9590 YYZZ=            -53.9653
 XXYZ=            -13.4700 YYXZ=             -5.5003 ZZXY=            -18.3939
 N-N= 3.421685591088D+01 E-N=-2.521162899910D+02  KE= 7.894263132446D+01
                          Isotropic Fermi Contact Couplings
        Atom                 a.u.       MegaHertz       Gauss      10(-4) cm-1
     1  C(13)              0.11652      65.49502      23.37025      21.84679
     2  H(1)              -0.00522     -11.67279      -4.16514      -3.89362
     3  H(1)              -0.00522     -11.66974      -4.16405      -3.89261
     4  H(1)              -0.00523     -11.67886      -4.16731      -3.89565
     5  C(13)             -0.11652     -65.49527     -23.37034     -21.84687
     6  H(1)               0.00522      11.66491       4.16233       3.89100
     7  H(1)               0.00523      11.67989       4.16767       3.89599
     8  H(1)               0.00522      11.67653       4.16648       3.89487
 --------------------------------------------------------
       Center         ----  Spin Dipole Couplings  ----
                      3XX-RR        3YY-RR        3ZZ-RR
 --------------------------------------------------------
     1   Atom       -0.157799      0.407424     -0.249625
     2   Atom       -0.032973     -0.011901      0.044874
     3   Atom        0.032044     -0.011902     -0.020142
     4   Atom        0.003786      0.016355     -0.020141
     5   Atom        0.157798     -0.407511      0.249713
     6   Atom       -0.032064      0.011893      0.020171
     7   Atom       -0.003801     -0.016350      0.020150
     8   Atom        0.032965      0.011905     -0.044870
 --------------------------------------------------------
                        XY            XZ            YZ
 --------------------------------------------------------
     1   Atom        0.346320      0.109220      0.230087
     2   Atom        0.012911     -0.001589     -0.003346
     3   Atom        0.001915     -0.028921      0.013196
     4   Atom       -0.021144      0.028507     -0.014062
     5   Atom       -0.346358     -0.109155     -0.229936
     6   Atom       -0.001896      0.028909     -0.013200
     7   Atom        0.021146     -0.028505      0.014059
     8   Atom       -0.012910      0.001619      0.003319
 --------------------------------------------------------


 ---------------------------------------------------------------------------------
              Anisotropic Spin Dipole Couplings in Principal Axis System
 ---------------------------------------------------------------------------------

       Atom             a.u.   MegaHertz   Gauss  10(-4) cm-1        Axes

              Baa    -0.3222   -43.235   -15.427   -14.422 -0.6673  0.0834  0.7401
     1 C(13)  Bbb    -0.3222   -43.234   -15.427   -14.421  0.6202 -0.4881  0.6142
              Bcc     0.6444    86.468    30.854    28.843  0.4124  0.8688  0.2740
 
              Baa    -0.0391   -20.862    -7.444    -6.959  0.9034 -0.4288  0.0000
     2 H(1)   Bbb    -0.0060    -3.224    -1.150    -1.075  0.4277  0.9010  0.0726
              Bcc     0.0451    24.086     8.595     8.034 -0.0311 -0.0655  0.9974
 
              Baa    -0.0391   -20.859    -7.443    -6.958  0.3501 -0.4288  0.8328
     3 H(1)   Bbb    -0.0060    -3.226    -1.151    -1.076  0.2327  0.9010  0.3661
              Bcc     0.0451    24.085     8.594     8.034  0.9073 -0.0656 -0.4152
 
              Baa    -0.0391   -20.858    -7.443    -6.958 -0.5536  0.0001  0.8328
     4 H(1)   Bbb    -0.0060    -3.226    -1.151    -1.076  0.5510  0.7499  0.3662
              Bcc     0.0451    24.084     8.594     8.034 -0.6245  0.6615 -0.4152
 
              Baa    -0.6444   -86.468   -30.854   -28.843  0.4124  0.8689  0.2738
     5 C(13)  Bbb     0.3222    43.232    15.426    14.421  0.2496 -0.3968  0.8833
              Bcc     0.3222    43.237    15.428    14.422  0.8761 -0.2960 -0.3805
 
              Baa    -0.0451   -24.088    -8.595    -8.035  0.9075 -0.0659 -0.4150
     6 H(1)   Bbb     0.0060     3.225     1.151     1.076  0.2327  0.9011  0.3658
              Bcc     0.0391    20.863     7.444     6.959  0.3498 -0.4285  0.8331
 
              Baa    -0.0451   -24.084    -8.594    -8.034 -0.6246  0.6615 -0.4151
     7 H(1)   Bbb     0.0060     3.226     1.151     1.076  0.5510  0.7500  0.3660
              Bcc     0.0391    20.858     7.443     6.958 -0.5534  0.0001  0.8329
 
              Baa    -0.0451   -24.083    -8.594    -8.033 -0.0314 -0.0652  0.9974
     8 H(1)   Bbb     0.0060     3.224     1.150     1.076  0.4277  0.9010  0.0723
              Bcc     0.0391    20.859     7.443     6.958  0.9034 -0.4289  0.0005
 

 ---------------------------------------------------------------------------------

 DipInt: DoE/N= T T RetVal/Mat= T F Init=T NMatP=  1 IDeriv=0 Min/MaxMlt=  1  1
 Entering OneElI...
 Multipole integrals L=1 to 1 MinM= 0 MaxM= 0.
 Requested accuracy = 0.1000D-12
 PrsmSu:  NPrtUS=   1 ThrOK=F IAlg=1 NPAlg=1 LenDen=           0.
 Prism:   IPart=     0 DynPar=F LinDyn=F Incr=          34.
 PRISM was handed   419150249 working-precision words and  3402 shell-pairs
 IPart=  0 NShTot=        3402 NBatch=          44 AvBLen=        77.3
 PrSmSu:  NxtVal=             35.
 Entering OneElI...
 Calculate overlap and kinetic energy integrals
    NBasis = 260  MinDer = 1  MaxDer = 1
 Requested accuracy = 0.1000D-12
 PrsmSu:  NPrtUS=  32 ThrOK=T IAlg=1 NPAlg=1 LenDen=           0.
 Prism:   IPart=     0 DynPar=F LinDyn=F Incr=           1.
 PRISM was handed    13041726 working-precision words and  3403 shell-pairs
 PRISM was handed    13041726 working-precision words and  3403 shell-pairs
 PRISM was handed    13041726 working-precision words and  3403 shell-pairs
 PRISM was handed    13041726 working-precision words and  3403 shell-pairs
 PRISM was handed    13041726 working-precision words and  3403 shell-pairs
 PRISM was handed    13041726 working-precision words and  3403 shell-pairs
 PRISM was handed    13041726 working-precision words and  3403 shell-pairs
 PRISM was handed    13041726 working-precision words and  3403 shell-pairs
 PRISM was handed    13041726 working-precision words and  3403 shell-pairs
 PRISM was handed    13041726 working-precision words and  3403 shell-pairs
 PRISM was handed    13041726 working-precision words and  3403 shell-pairs
 PRISM was handed    13041726 working-precision words and  3403 shell-pairs
 PRISM was handed    13041726 working-precision words and  3403 shell-pairs
 PRISM was handed    13041726 working-precision words and  3403 shell-pairs
 PRISM was handed    13041726 working-precision words and  3403 shell-pairs
 PRISM was handed    13041726 working-precision words and  3403 shell-pairs
 PRISM was handed    13041726 working-precision words and  3403 shell-pairs
 PRISM was handed    13041726 working-precision words and  3403 shell-pairs
 PRISM was handed    13041726 working-precision words and  3403 shell-pairs
 PRISM was handed    13041726 working-precision words and  3403 shell-pairs
 PRISM was handed    13041726 working-precision words and  3403 shell-pairs
 PRISM was handed    13041726 working-precision words and  3403 shell-pairs
 PRISM was handed    13041726 working-precision words and  3403 shell-pairs
 PRISM was handed    13041726 working-precision words and  3403 shell-pairs
 PRISM was handed    13041726 working-precision words and  3403 shell-pairs
 PRISM was handed    13041726 working-precision words and  3403 shell-pairs
 PRISM was handed    13041726 working-precision words and  3403 shell-pairs
 PRISM was handed    13041726 working-precision words and  3403 shell-pairs
 PRISM was handed    13041726 working-precision words and  3403 shell-pairs
 PRISM was handed    13041726 working-precision words and  3403 shell-pairs
 PRISM was handed    13041726 working-precision words and  3403 shell-pairs
 PRISM was handed    13041726 working-precision words and  3403 shell-pairs
 IPart=  0 NShTot=         135 NBatch=          43 AvBLen=         3.1
 IPart= 19 NShTot=          98 NBatch=          21 AvBLen=         4.7
 IPart=  4 NShTot=         122 NBatch=          33 AvBLen=         3.7
 IPart=  1 NShTot=         133 NBatch=          41 AvBLen=         3.2
 IPart= 30 NShTot=          95 NBatch=          20 AvBLen=         4.8
 IPart=  5 NShTot=         122 NBatch=          33 AvBLen=         3.7
 IPart= 25 NShTot=          96 NBatch=          20 AvBLen=         4.8
 IPart= 14 NShTot=         105 NBatch=          21 AvBLen=         5.0
 IPart= 29 NShTot=          95 NBatch=          20 AvBLen=         4.8
 IPart=  7 NShTot=         117 NBatch=          28 AvBLen=         4.2
 IPart= 22 NShTot=          97 NBatch=          21 AvBLen=         4.6
 IPart= 31 NShTot=          95 NBatch=          20 AvBLen=         4.8
 IPart= 12 NShTot=         105 NBatch=          21 AvBLen=         5.0
 IPart= 13 NShTot=         105 NBatch=          21 AvBLen=         5.0
 IPart= 20 NShTot=          98 NBatch=          21 AvBLen=         4.7
 IPart= 16 NShTot=          99 NBatch=          21 AvBLen=         4.7
 IPart= 15 NShTot=         105 NBatch=          21 AvBLen=         5.0
 IPart= 24 NShTot=          96 NBatch=          20 AvBLen=         4.8
 IPart= 11 NShTot=         109 NBatch=          22 AvBLen=         5.0
 IPart=  3 NShTot=         125 NBatch=          33 AvBLen=         3.8
 IPart= 18 NShTot=          98 NBatch=          21 AvBLen=         4.7
 IPart=  9 NShTot=         111 NBatch=          23 AvBLen=         4.8
 IPart=  8 NShTot=         112 NBatch=          24 AvBLen=         4.7
 IPart= 21 NShTot=          98 NBatch=          21 AvBLen=         4.7
 IPart= 23 NShTot=          97 NBatch=          21 AvBLen=         4.6
 IPart=  6 NShTot=         117 NBatch=          28 AvBLen=         4.2
 IPart= 10 NShTot=         110 NBatch=          22 AvBLen=         5.0
 IPart= 17 NShTot=          98 NBatch=          21 AvBLen=         4.7
 IPart= 27 NShTot=          95 NBatch=          20 AvBLen=         4.8
 IPart= 26 NShTot=          95 NBatch=          20 AvBLen=         4.8
 IPart=  2 NShTot=         125 NBatch=          33 AvBLen=         3.8
 IPart= 28 NShTot=          95 NBatch=          20 AvBLen=         4.8
 PrSmSu:  NxtVal=             33.
 Entering OneElI...
 Calculate potential energy integrals
    NBasis = 260  MinDer = 1  MaxDer = 1
 Requested accuracy = 0.1000D-12
 PrsmSu:  NPrtUS=  32 ThrOK=T IAlg=1 NPAlg=1 LenDen=           0.
 Prism:   IPart=     0 DynPar=F LinDyn=F Incr=           8.
 PRISM was handed    13047627 working-precision words and  3360 shell-pairs
 PRISM was handed    13047627 working-precision words and  3360 shell-pairs
 PRISM was handed    13047627 working-precision words and  3360 shell-pairs
 PRISM was handed    13047627 working-precision words and  3360 shell-pairs
 PRISM was handed    13047627 working-precision words and  3360 shell-pairs
 PRISM was handed    13047627 working-precision words and  3360 shell-pairs
 PRISM was handed    13047627 working-precision words and  3360 shell-pairs
 PRISM was handed    13047627 working-precision words and  3360 shell-pairs
 PRISM was handed    13047627 working-precision words and  3360 shell-pairs
 PRISM was handed    13047627 working-precision words and  3360 shell-pairs
 PRISM was handed    13047627 working-precision words and  3360 shell-pairs
 PRISM was handed    13047627 working-precision words and  3360 shell-pairs
 PRISM was handed    13047627 working-precision words and  3360 shell-pairs
 PRISM was handed    13047627 working-precision words and  3360 shell-pairs
 PRISM was handed    13047627 working-precision words and  3360 shell-pairs
 PRISM was handed    13047627 working-precision words and  3360 shell-pairs
 PRISM was handed    13047627 working-precision words and  3360 shell-pairs
 PRISM was handed    13047627 working-precision words and  3360 shell-pairs
 PRISM was handed    13047627 working-precision words and  3360 shell-pairs
 PRISM was handed    13047627 working-precision words and  3360 shell-pairs
 PRISM was handed    13047627 working-precision words and  3360 shell-pairs
 PRISM was handed    13047627 working-precision words and  3360 shell-pairs
 PRISM was handed    13047627 working-precision words and  3360 shell-pairs
 PRISM was handed    13047627 working-precision words and  3360 shell-pairs
 PRISM was handed    13047627 working-precision words and  3360 shell-pairs
 PRISM was handed    13047627 working-precision words and  3360 shell-pairs
 PRISM was handed    13047627 working-precision words and  3360 shell-pairs
 PRISM was handed    13047627 working-precision words and  3360 shell-pairs
 PRISM was handed    13047627 working-precision words and  3360 shell-pairs
 PRISM was handed    13047627 working-precision words and  3360 shell-pairs
 PRISM was handed    13047627 working-precision words and  3360 shell-pairs
 PRISM was handed    13047627 working-precision words and  3360 shell-pairs
 IPart= 27 NShTot=         760 NBatch=          95 AvBLen=         8.0
 IPart= 23 NShTot=         784 NBatch=          98 AvBLen=         8.0
 IPart= 14 NShTot=         808 NBatch=         101 AvBLen=         8.0
 IPart= 18 NShTot=         792 NBatch=          99 AvBLen=         8.0
 IPart= 29 NShTot=         752 NBatch=          94 AvBLen=         8.0
 IPart= 28 NShTot=         752 NBatch=          94 AvBLen=         8.0
 IPart=  7 NShTot=         928 NBatch=         116 AvBLen=         8.0
 IPart= 31 NShTot=         736 NBatch=          92 AvBLen=         8.0
 IPart= 24 NShTot=         760 NBatch=          95 AvBLen=         8.0
 IPart=  5 NShTot=         976 NBatch=         122 AvBLen=         8.0
 IPart= 26 NShTot=         760 NBatch=          95 AvBLen=         8.0
 IPart= 11 NShTot=         840 NBatch=         105 AvBLen=         8.0
 IPart= 10 NShTot=         848 NBatch=         106 AvBLen=         8.0
 IPart= 13 NShTot=         824 NBatch=         103 AvBLen=         8.0
 IPart=  9 NShTot=         872 NBatch=         109 AvBLen=         8.0
 IPart=  1 NShTot=        1032 NBatch=         129 AvBLen=         8.0
 IPart= 22 NShTot=         784 NBatch=          98 AvBLen=         8.0
 IPart=  3 NShTot=         976 NBatch=         122 AvBLen=         8.0
 IPart= 21 NShTot=         784 NBatch=          98 AvBLen=         8.0
 IPart=  0 NShTot=        1048 NBatch=         131 AvBLen=         8.0
 IPart= 16 NShTot=         800 NBatch=         100 AvBLen=         8.0
 IPart= 20 NShTot=         784 NBatch=          98 AvBLen=         8.0
 IPart= 19 NShTot=         792 NBatch=          99 AvBLen=         8.0
 IPart= 25 NShTot=         760 NBatch=          95 AvBLen=         8.0
 IPart= 15 NShTot=         808 NBatch=         101 AvBLen=         8.0
 IPart=  4 NShTot=         976 NBatch=         122 AvBLen=         8.0
 IPart= 12 NShTot=         824 NBatch=         103 AvBLen=         8.0
 IPart= 17 NShTot=         800 NBatch=         100 AvBLen=         8.0
 IPart=  6 NShTot=         928 NBatch=         116 AvBLen=         8.0
 IPart=  8 NShTot=         880 NBatch=         110 AvBLen=         8.0
 IPart= 30 NShTot=         736 NBatch=          92 AvBLen=         8.0
 IPart=  2 NShTot=         976 NBatch=         122 AvBLen=         8.0
 PrSmSu:  NxtVal=            257.
 l701 out
 I=    0 X=   2.860944333927D-05 Y=  -1.363162239798D-05 Z=   3.442252788144D-06
 I=    1 X=   2.042544207316D-01 Y=   4.298420875514D-01 Z=   1.363475731584D-01
 I=    2 X=   8.311684384492D-02 Y=   1.750663820827D-01 Z=   3.021052391920D+00
 I=    3 X=   2.816761273717D+00 Y=   1.750088136650D-01 Z=  -1.094225399026D+00
 I=    4 X=  -1.645310183832D+00 Y=   2.293026565252D+00 Z=  -1.094328147665D+00
 I=    5 X=  -2.052514095335D-01 Y=  -4.296859663911D-01 Z=  -1.353259632248D-01
 I=    6 X=  -2.817327423331D+00 Y=  -1.743484375777D-01 Z=   1.093374937970D+00
 I=    7 X=   1.645769373153D+00 Y=  -2.292788659532D+00 Z=   1.093995586416D+00
 I=    8 X=  -8.201289475060D-02 Y=  -1.761207850500D-01 Z=  -3.020890979548D+00
 ICntrl=      2127.
 Calling FoFJK, ICntrl=      2127 FMM=F ISym2X=0 I1Cent= 0 IOpClX= 1 NMat=1 NMatS=1 NMatT=0.
 FoFJK:  IHMeth= 1 ICntrl=    2127 DoSepK=T KAlg= 0 I1Cent=   0 FoldK=F
 IRaf=         1 NMat=   1 IRICut=       1 DoRegI=T DoRafI=F ISym2E= 0.
 FoFCou: FMM=F IPFlag=           0 FMFlag=      100000 FMFlg1=         800
         NFxFlg=           0 DoJE=F BraDBF=F KetDBF=F FulRan=T
         wScrn=  0.000000 ICntrl=    2527 IOpCl=  0 I1Cent=           0 NGrid=           0
         NMat0=    1 NMatS0=      1 NMatT0=    0 NMatD0=    1 NMtDS0=    0 NMtDT0=    0
 Symmetry not used in FoFCou.
 FoFCou:  KetSym=F NOpSet=  1 NOpAb=1 NOp=  1.
 FoFCou:  CnvScl= 1.00D+00 Thresh= 1.00D-10 IAcrcy=      10.
 PrismS was handed   419079970 working-precision words and  3399 shell-pairs
 FoFCou: LinMIO=F DoNuc=F BraDBF=F KetDBF=F HaveP=T PDBF=F HaveZ=T HaveW=F
         NIJTC =      10 NIJTAt=       0 NIJTCD=       0 NIJTT =      10
         IJTBeg=       1 IJTEnd=      10 KLTBeg=       1 KLTEnd=      10
         IPTBeg=       1 IPTEnd=      10 IPTBCv=       1 IPTECv=      10
         IZTBeg=       1 IZTEnd=      10 IZTBCv=       1 IZTECv=      10
         IWTBeg=      11 IWTEnd=      10 IWTBCv=      11 IWTECv=      10
         INTBeg=       1 INTEnd=       0 IFTBCv=       1 IFTECv=      10
 NCel replicated for PrismC:     1
 CoulSu:  IncDef=  1024 NBBP=        5778300 NTPThr=   100 NPartT=   32 Incr=        1024 LDynOK=F.
 CoulSu:  NPrtUS=  32 ThrOK=T IAlg=1 NPAlg=1 LenDen=           0 LWGrdD=           0 DoCopy=F.
 Enter PrismC: JobTyp=21 DoJE=F Cont=F.
 PrismC:  IPart=     0 DynPar=T LinDyn=F Incr=        1024 UseFst=F UseS4=T IGathr=2.
 PrismC was handed    13044359 working-precision words and  3399 shell-pairs
 Enter PrismC: JobTyp=21 DoJE=F Cont=F.
 Enter PrismC: JobTyp=21 DoJE=F Cont=F.
 Enter PrismC: JobTyp=21 DoJE=F Cont=F.
 Enter PrismC: JobTyp=21 DoJE=F Cont=F.
 Enter PrismC: JobTyp=21 DoJE=F Cont=F.
 Enter PrismC: JobTyp=21 DoJE=F Cont=F.
 Enter PrismC: JobTyp=21 DoJE=F Cont=F.
 Enter PrismC: JobTyp=21 DoJE=F Cont=F.
 Enter PrismC: JobTyp=21 DoJE=F Cont=F.
 Enter PrismC: JobTyp=21 DoJE=F Cont=F.
 Enter PrismC: JobTyp=21 DoJE=F Cont=F.
 Enter PrismC: JobTyp=21 DoJE=F Cont=F.
 Enter PrismC: JobTyp=21 DoJE=F Cont=F.
 Enter PrismC: JobTyp=21 DoJE=F Cont=F.
 PrismC was handed    13044359 working-precision words and  3399 shell-pairs
 Enter PrismC: JobTyp=21 DoJE=F Cont=F.
 PrismC was handed    13044359 working-precision words and  3399 shell-pairs
 Enter PrismC: JobTyp=21 DoJE=F Cont=F.
 PrismC was handed    13044359 working-precision words and  3399 shell-pairs
 Enter PrismC: JobTyp=21 DoJE=F Cont=F.
 PrismC was handed    13044359 working-precision words and  3399 shell-pairs
 Enter PrismC: JobTyp=21 DoJE=F Cont=F.
 PrismC was handed    13044359 working-precision words and  3399 shell-pairs
 Enter PrismC: JobTyp=21 DoJE=F Cont=F.
 PrismC was handed    13044359 working-precision words and  3399 shell-pairs
 Enter PrismC: JobTyp=21 DoJE=F Cont=F.
 PrismC was handed    13044359 working-precision words and  3399 shell-pairs
 Enter PrismC: JobTyp=21 DoJE=F Cont=F.
 PrismC was handed    13044359 working-precision words and  3399 shell-pairs
 Enter PrismC: JobTyp=21 DoJE=F Cont=F.
 PrismC was handed    13044359 working-precision words and  3399 shell-pairs
 Enter PrismC: JobTyp=21 DoJE=F Cont=F.
 PrismC was handed    13044359 working-precision words and  3399 shell-pairs
 Enter PrismC: JobTyp=21 DoJE=F Cont=F.
 PrismC was handed    13044359 working-precision words and  3399 shell-pairs
 Enter PrismC: JobTyp=21 DoJE=F Cont=F.
 PrismC was handed    13044359 working-precision words and  3399 shell-pairs
 Enter PrismC: JobTyp=21 DoJE=F Cont=F.
 PrismC was handed    13044359 working-precision words and  3399 shell-pairs
 Enter PrismC: JobTyp=21 DoJE=F Cont=F.
 PrismC was handed    13044359 working-precision words and  3399 shell-pairs
 Enter PrismC: JobTyp=21 DoJE=F Cont=F.
 PrismC was handed    13044359 working-precision words and  3399 shell-pairs
 Enter PrismC: JobTyp=21 DoJE=F Cont=F.
 PrismC was handed    13044359 working-precision words and  3399 shell-pairs
 Enter PrismC: JobTyp=21 DoJE=F Cont=F.
 PrismC was handed    13044359 working-precision words and  3399 shell-pairs
 Enter PrismC: JobTyp=21 DoJE=F Cont=F.
 PrismC was handed    13044359 working-precision words and  3399 shell-pairs
 PrismC was handed    13044359 working-precision words and  3399 shell-pairs
 PrismC was handed    13044359 working-precision words and  3399 shell-pairs
 PrismC was handed    13044359 working-precision words and  3399 shell-pairs
 PrismC was handed    13044359 working-precision words and  3399 shell-pairs
 PrismC was handed    13044359 working-precision words and  3399 shell-pairs
 PrismC was handed    13044359 working-precision words and  3399 shell-pairs
 PrismC was handed    13044359 working-precision words and  3399 shell-pairs
 PrismC was handed    13044359 working-precision words and  3399 shell-pairs
 PrismC was handed    13044359 working-precision words and  3399 shell-pairs
 PrismC was handed    13044359 working-precision words and  3399 shell-pairs
 PrismC was handed    13044359 working-precision words and  3399 shell-pairs
 PrismC was handed    13044359 working-precision words and  3399 shell-pairs
 PrismC was handed    13044359 working-precision words and  3399 shell-pairs
 IPart= 20 NShTot=      164861 NShNF=      164861 NShFF=           0 NBatch=        1491 AvBLen=       110.6
 IPart= 13 NShTot=      169005 NShNF=      169005 NShFF=           0 NBatch=        1496 AvBLen=       113.0
 IPart= 19 NShTot=      146955 NShNF=      146955 NShFF=           0 NBatch=        1335 AvBLen=       110.1
 IPart= 15 NShTot=      165684 NShNF=      165684 NShFF=           0 NBatch=        1489 AvBLen=       111.3
 IPart= 10 NShTot=      159730 NShNF=      159730 NShFF=           0 NBatch=        1225 AvBLen=       130.4
 IPart= 17 NShTot=      161831 NShNF=      161831 NShFF=           0 NBatch=        1389 AvBLen=       116.5
 IPart= 31 NShTot=      158587 NShNF=      158587 NShFF=           0 NBatch=        1463 AvBLen=       108.4
 IPart= 26 NShTot=      165300 NShNF=      165300 NShFF=           0 NBatch=        1467 AvBLen=       112.7
 IPart=  5 NShTot=      170740 NShNF=      170740 NShFF=           0 NBatch=        1541 AvBLen=       110.8
 IPart= 23 NShTot=      158667 NShNF=      158667 NShFF=           0 NBatch=        1465 AvBLen=       108.3
 IPart= 27 NShTot=      160646 NShNF=      160646 NShFF=           0 NBatch=        1484 AvBLen=       108.3
 IPart=  7 NShTot=      169703 NShNF=      169703 NShFF=           0 NBatch=        1509 AvBLen=       112.5
 IPart=  2 NShTot=      161915 NShNF=      161915 NShFF=           0 NBatch=        1410 AvBLen=       114.8
 IPart= 24 NShTot=      160892 NShNF=      160892 NShFF=           0 NBatch=        1309 AvBLen=       122.9
 IPart= 28 NShTot=      185096 NShNF=      185096 NShFF=           0 NBatch=        1410 AvBLen=       131.3
 IPart= 14 NShTot=      168462 NShNF=      168462 NShFF=           0 NBatch=        1466 AvBLen=       114.9
 IPart=  4 NShTot=      161391 NShNF=      161391 NShFF=           0 NBatch=        1447 AvBLen=       111.5
 IPart=  1 NShTot=      162951 NShNF=      162951 NShFF=           0 NBatch=        1498 AvBLen=       108.8
 IPart=  6 NShTot=      163233 NShNF=      163233 NShFF=           0 NBatch=        1482 AvBLen=       110.1
 IPart= 30 NShTot=      151309 NShNF=      151309 NShFF=           0 NBatch=        1528 AvBLen=        99.0
 IPart=  0 NShTot=      146861 NShNF=      146861 NShFF=           0 NBatch=        1069 AvBLen=       137.4
 IPart= 21 NShTot=      167541 NShNF=      167541 NShFF=           0 NBatch=        1498 AvBLen=       111.8
 IPart=  9 NShTot=      161011 NShNF=      161011 NShFF=           0 NBatch=        1516 AvBLen=       106.2
 IPart= 22 NShTot=      167785 NShNF=      167785 NShFF=           0 NBatch=        1513 AvBLen=       110.9
 IPart= 16 NShTot=      162126 NShNF=      162126 NShFF=           0 NBatch=        1493 AvBLen=       108.6
 IPart=  8 NShTot=      158434 NShNF=      158434 NShFF=           0 NBatch=        1280 AvBLen=       123.8
 IPart=  3 NShTot=      172554 NShNF=      172554 NShFF=           0 NBatch=        1548 AvBLen=       111.5
 IPart= 25 NShTot=      168913 NShNF=      168913 NShFF=           0 NBatch=        1461 AvBLen=       115.6
 IPart= 29 NShTot=      173607 NShNF=      173607 NShFF=           0 NBatch=        1250 AvBLen=       138.9
 IPart= 11 NShTot=      172450 NShNF=      172450 NShFF=           0 NBatch=        1520 AvBLen=       113.5
 IPart= 12 NShTot=      159975 NShNF=      159975 NShFF=           0 NBatch=        1406 AvBLen=       113.8
 IPart= 18 NShTot=      154052 NShNF=      154052 NShFF=           0 NBatch=        1419 AvBLen=       108.6
 CoulSu:  NxtVal=        6343681.
 FoFCou: FMM=F IPFlag=           0 FMFlag=      100000 FMFlg1=         800
         NFxFlg=           0 DoJE=F BraDBF=F KetDBF=F FulRan=T
         wScrn=  0.000000 ICntrl=    2127 IOpCl=  1 I1Cent=           0 NGrid=           0
         NMat0=    1 NMatS0=      0 NMatT0=    1 NMatD0=    1 NMtDS0=    0 NMtDT0=    0
         CW=    0.222036    0.777964
         WU=    0.000000   12.500000
 Symmetry not used in FoFCou.
 FoFCou:  KetSym=F NOpSet=  1 NOpAb=1 NOp=  1.
 FoFCou:  CnvScl= 1.00D+00 Thresh= 1.00D-10 IAcrcy=      10.
 PrismS was handed   419076623 working-precision words and  3399 shell-pairs
 FoFCou: LinMIO=F DoNuc=F BraDBF=F KetDBF=F HaveP=T PDBF=F HaveZ=T HaveW=F
         NIJTC =      10 NIJTAt=       0 NIJTCD=       0 NIJTT =      10
         IJTBeg=       1 IJTEnd=      10 KLTBeg=       1 KLTEnd=      10
         IPTBeg=       1 IPTEnd=      10 IPTBCv=       1 IPTECv=      10
         IZTBeg=       1 IZTEnd=      10 IZTBCv=       1 IZTECv=      10
         IWTBeg=      11 IWTEnd=      10 IWTBCv=      11 IWTECv=      10
         INTBeg=       1 INTEnd=       0 IFTBCv=       1 IFTECv=      10
 NCel replicated for PrismC:     1
 CoulSu:  IncDef=  1024 NBBP=        5778300 NTPThr=   100 NPartT=   32 Incr=        1024 LDynOK=F.
 CoulSu:  NPrtUS=  32 ThrOK=T IAlg=1 NPAlg=1 LenDen=           0 LWGrdD=           0 DoCopy=F.
 Enter PrismC: JobTyp=21 DoJE=F Cont=F.
 Linear combination for Coulomb/exchange, wScrn=  0.000000
 CW=    0.222036    0.777964
 WU=    0.000000   12.500000
 PrismC:  IPart=     0 DynPar=T LinDyn=F Incr=        1024 UseFst=F UseS4=T IGathr=2.
 PrismC was handed    13044254 working-precision words and  3399 shell-pairs
 Enter PrismC: JobTyp=21 DoJE=F Cont=F.
 Enter PrismC: JobTyp=21 DoJE=F Cont=F.
 Enter PrismC: JobTyp=21 DoJE=F Cont=F.
 Linear combination for Coulomb/exchange, wScrn=  0.000000
 CW=    0.222036    0.777964
 WU=    0.000000   12.500000
 Enter PrismC: JobTyp=21 DoJE=F Cont=F.
 Linear combination for Coulomb/exchange, wScrn=  0.000000
 CW=    0.222036    0.777964
 WU=    0.000000   12.500000
 Enter PrismC: JobTyp=21 DoJE=F Cont=F.
 Linear combination for Coulomb/exchange, wScrn=  0.000000
 CW=    0.222036    0.777964
 WU=    0.000000   12.500000
 Enter PrismC: JobTyp=21 DoJE=F Cont=F.
 Linear combination for Coulomb/exchange, wScrn=  0.000000
 CW=    0.222036    0.777964
 WU=    0.000000   12.500000
 Enter PrismC: JobTyp=21 DoJE=F Cont=F.
 Linear combination for Coulomb/exchange, wScrn=  0.000000
 CW=    0.222036    0.777964
 WU=    0.000000   12.500000
 Linear combination for Coulomb/exchange, wScrn=  0.000000
 CW=    0.222036    0.777964
 WU=    0.000000   12.500000
 Enter PrismC: JobTyp=21 DoJE=F Cont=F.
 Linear combination for Coulomb/exchange, wScrn=  0.000000
 CW=    0.222036    0.777964
 WU=    0.000000   12.500000
 Enter PrismC: JobTyp=21 DoJE=F Cont=F.
 Linear combination for Coulomb/exchange, wScrn=  0.000000
 CW=    0.222036    0.777964
 WU=    0.000000   12.500000
 Enter PrismC: JobTyp=21 DoJE=F Cont=F.
 Linear combination for Coulomb/exchange, wScrn=  0.000000
 CW=    0.222036    0.777964
 WU=    0.000000   12.500000
 Enter PrismC: JobTyp=21 DoJE=F Cont=F.
 Linear combination for Coulomb/exchange, wScrn=  0.000000
 CW=    0.222036    0.777964
 WU=    0.000000   12.500000
 Enter PrismC: JobTyp=21 DoJE=F Cont=F.
 Linear combination for Coulomb/exchange, wScrn=  0.000000
 CW=    0.222036    0.777964
 WU=    0.000000   12.500000
 Enter PrismC: JobTyp=21 DoJE=F Cont=F.
 Linear combination for Coulomb/exchange, wScrn=  0.000000
 CW=    0.222036    0.777964
 WU=    0.000000   12.500000
 PrismC was handed    13044254 working-precision words and  3399 shell-pairs
 Enter PrismC: JobTyp=21 DoJE=F Cont=F.
 Linear combination for Coulomb/exchange, wScrn=  0.000000
 CW=    0.222036    0.777964
 WU=    0.000000   12.500000
 Enter PrismC: JobTyp=21 DoJE=F Cont=F.
 Linear combination for Coulomb/exchange, wScrn=  0.000000
 CW=    0.222036    0.777964
 WU=    0.000000   12.500000
 Enter PrismC: JobTyp=21 DoJE=F Cont=F.
 Linear combination for Coulomb/exchange, wScrn=  0.000000
 CW=    0.222036    0.777964
 WU=    0.000000   12.500000
 PrismC was handed    13044254 working-precision words and  3399 shell-pairs
 PrismC was handed    13044254 working-precision words and  3399 shell-pairs
 Enter PrismC: JobTyp=21 DoJE=F Cont=F.
 Linear combination for Coulomb/exchange, wScrn=  0.000000
 CW=    0.222036    0.777964
 WU=    0.000000   12.500000
 Enter PrismC: JobTyp=21 DoJE=F Cont=F.
 Linear combination for Coulomb/exchange, wScrn=  0.000000
 CW=    0.222036    0.777964
 WU=    0.000000   12.500000
 Enter PrismC: JobTyp=21 DoJE=F Cont=F.
 Linear combination for Coulomb/exchange, wScrn=  0.000000
 CW=    0.222036    0.777964
 WU=    0.000000   12.500000
 Enter PrismC: JobTyp=21 DoJE=F Cont=F.
 Linear combination for Coulomb/exchange, wScrn=  0.000000
 CW=    0.222036    0.777964
 WU=    0.000000   12.500000
 Enter PrismC: JobTyp=21 DoJE=F Cont=F.
 Linear combination for Coulomb/exchange, wScrn=  0.000000
 CW=    0.222036    0.777964
 WU=    0.000000   12.500000
 PrismC was handed    13044254 working-precision words and  3399 shell-pairs
 Enter PrismC: JobTyp=21 DoJE=F Cont=F.
 Enter PrismC: JobTyp=21 DoJE=F Cont=F.
 Linear combination for Coulomb/exchange, wScrn=  0.000000
 CW=    0.222036    0.777964
 WU=    0.000000   12.500000
 Enter PrismC: JobTyp=21 DoJE=F Cont=F.
 Linear combination for Coulomb/exchange, wScrn=  0.000000
 CW=    0.222036    0.777964
 WU=    0.000000   12.500000
 PrismC was handed    13044254 working-precision words and  3399 shell-pairs
 PrismC was handed    13044254 working-precision words and  3399 shell-pairs
 Enter PrismC: JobTyp=21 DoJE=F Cont=F.
 Linear combination for Coulomb/exchange, wScrn=  0.000000
 CW=    0.222036    0.777964
 WU=    0.000000   12.500000
 Enter PrismC: JobTyp=21 DoJE=F Cont=F.
 PrismC was handed    13044254 working-precision words and  3399 shell-pairs
 PrismC was handed    13044254 working-precision words and  3399 shell-pairs
 PrismC was handed    13044254 working-precision words and  3399 shell-pairs
 Enter PrismC: JobTyp=21 DoJE=F Cont=F.
 Linear combination for Coulomb/exchange, wScrn=  0.000000
 CW=    0.222036    0.777964
 WU=    0.000000   12.500000
 PrismC was handed    13044254 working-precision words and  3399 shell-pairs
 Enter PrismC: JobTyp=21 DoJE=F Cont=F.
 Linear combination for Coulomb/exchange, wScrn=  0.000000
 CW=    0.222036    0.777964
 WU=    0.000000   12.500000
 PrismC was handed    13044254 working-precision words and  3399 shell-pairs
 PrismC was handed    13044254 working-precision words and  3399 shell-pairs
 Linear combination for Coulomb/exchange, wScrn=  0.000000
 CW=    0.222036    0.777964
 WU=    0.000000   12.500000
 Enter PrismC: JobTyp=21 DoJE=F Cont=F.
 PrismC was handed    13044254 working-precision words and  3399 shell-pairs
 PrismC was handed    13044254 working-precision words and  3399 shell-pairs
 PrismC was handed    13044254 working-precision words and  3399 shell-pairs
 PrismC was handed    13044254 working-precision words and  3399 shell-pairs
 PrismC was handed    13044254 working-precision words and  3399 shell-pairs
 PrismC was handed    13044254 working-precision words and  3399 shell-pairs
 Linear combination for Coulomb/exchange, wScrn=  0.000000
 CW=    0.222036    0.777964
 WU=    0.000000   12.500000
 Enter PrismC: JobTyp=21 DoJE=F Cont=F.
 PrismC was handed    13044254 working-precision words and  3399 shell-pairs
 PrismC was handed    13044254 working-precision words and  3399 shell-pairs
 PrismC was handed    13044254 working-precision words and  3399 shell-pairs
 Linear combination for Coulomb/exchange, wScrn=  0.000000
 CW=    0.222036    0.777964
 WU=    0.000000   12.500000
 Enter PrismC: JobTyp=21 DoJE=F Cont=F.
 Linear combination for Coulomb/exchange, wScrn=  0.000000
 CW=    0.222036    0.777964
 WU=    0.000000   12.500000
 PrismC was handed    13044254 working-precision words and  3399 shell-pairs
 PrismC was handed    13044254 working-precision words and  3399 shell-pairs
 PrismC was handed    13044254 working-precision words and  3399 shell-pairs
 Linear combination for Coulomb/exchange, wScrn=  0.000000
 CW=    0.222036    0.777964
 WU=    0.000000   12.500000
 PrismC was handed    13044254 working-precision words and  3399 shell-pairs
 PrismC was handed    13044254 working-precision words and  3399 shell-pairs
 Linear combination for Coulomb/exchange, wScrn=  0.000000
 CW=    0.222036    0.777964
 WU=    0.000000   12.500000
 PrismC was handed    13044254 working-precision words and  3399 shell-pairs
 PrismC was handed    13044254 working-precision words and  3399 shell-pairs
 PrismC was handed    13044254 working-precision words and  3399 shell-pairs
 PrismC was handed    13044254 working-precision words and  3399 shell-pairs
 PrismC was handed    13044254 working-precision words and  3399 shell-pairs
 IPart=  7 NShTot=      161480 NShNF=      161480 NShFF=           0 NBatch=        1762 AvBLen=        91.6
 IPart=  4 NShTot=      166022 NShNF=      166022 NShFF=           0 NBatch=        1822 AvBLen=        91.1
 IPart=  1 NShTot=      164996 NShNF=      164996 NShFF=           0 NBatch=        1731 AvBLen=        95.3
 IPart= 28 NShTot=      171237 NShNF=      171237 NShFF=           0 NBatch=        1770 AvBLen=        96.7
 IPart= 13 NShTot=      182281 NShNF=      182281 NShFF=           0 NBatch=        1835 AvBLen=        99.3
 IPart=  9 NShTot=      171546 NShNF=      171546 NShFF=           0 NBatch=        1704 AvBLen=       100.7
 IPart= 15 NShTot=      178849 NShNF=      178849 NShFF=           0 NBatch=        1865 AvBLen=        95.9
 IPart=  8 NShTot=      175362 NShNF=      175362 NShFF=           0 NBatch=        1813 AvBLen=        96.7
 IPart= 18 NShTot=      155946 NShNF=      155946 NShFF=           0 NBatch=        1776 AvBLen=        87.8
 IPart= 14 NShTot=      168073 NShNF=      168073 NShFF=           0 NBatch=        1746 AvBLen=        96.3
 IPart= 11 NShTot=      171397 NShNF=      171397 NShFF=           0 NBatch=        1630 AvBLen=       105.2
 IPart= 29 NShTot=      170598 NShNF=      170598 NShFF=           0 NBatch=        1757 AvBLen=        97.1
 IPart= 12 NShTot=      168307 NShNF=      168307 NShFF=           0 NBatch=        1841 AvBLen=        91.4
 IPart=  3 NShTot=      159753 NShNF=      159753 NShFF=           0 NBatch=        1810 AvBLen=        88.3
 IPart= 27 NShTot=      162028 NShNF=      162028 NShFF=           0 NBatch=        1766 AvBLen=        91.7
 IPart=  0 NShTot=      154943 NShNF=      154943 NShFF=           0 NBatch=        1416 AvBLen=       109.4
 IPart= 24 NShTot=      158240 NShNF=      158240 NShFF=           0 NBatch=        1686 AvBLen=        93.9
 IPart= 21 NShTot=      153564 NShNF=      153564 NShFF=           0 NBatch=        1724 AvBLen=        89.1
 IPart= 17 NShTot=      164828 NShNF=      164828 NShFF=           0 NBatch=        1804 AvBLen=        91.4
 IPart= 31 NShTot=      155495 NShNF=      155495 NShFF=           0 NBatch=        1794 AvBLen=        86.7
 IPart= 22 NShTot=      171371 NShNF=      171371 NShFF=           0 NBatch=        1809 AvBLen=        94.7
 IPart= 20 NShTot=      159510 NShNF=      159510 NShFF=           0 NBatch=        1811 AvBLen=        88.1
 IPart=  5 NShTot=      150294 NShNF=      150294 NShFF=           0 NBatch=        1784 AvBLen=        84.2
 IPart= 16 NShTot=      168546 NShNF=      168546 NShFF=           0 NBatch=        1783 AvBLen=        94.5
 IPart= 30 NShTot=      154539 NShNF=      154539 NShFF=           0 NBatch=        1838 AvBLen=        84.1
 IPart= 25 NShTot=      151597 NShNF=      151597 NShFF=           0 NBatch=        1783 AvBLen=        85.0
 IPart= 19 NShTot=      151472 NShNF=      151472 NShFF=           0 NBatch=        1761 AvBLen=        86.0
 IPart=  2 NShTot=      165832 NShNF=      165832 NShFF=           0 NBatch=        1699 AvBLen=        97.6
 IPart= 26 NShTot=      170586 NShNF=      170586 NShFF=           0 NBatch=        1804 AvBLen=        94.6
 IPart=  6 NShTot=      163565 NShNF=      163565 NShFF=           0 NBatch=        1799 AvBLen=        90.9
 IPart= 23 NShTot=      161423 NShNF=      161423 NShFF=           0 NBatch=        1776 AvBLen=        90.9
 IPart= 10 NShTot=      165449 NShNF=      165449 NShFF=           0 NBatch=        1813 AvBLen=        91.3
 CoulSu:  NxtVal=        6343681.
 ReadGW:  IGet=0 IStart=           1 Next=           1 LGW=           0.
 Remaining memory in FofDFT      399.87 Mw
 CkSvGd:  ISavGI=        -1 IRadAn=       5 IRASav=       5 ISavGd=        -1.
 CalDSu:  NPrtUS=  32 ThrOK=T IAlg=1 NPAlg=2 DoDPD=T LenP=       33930 LenD1P=             0.
 IPart=  0 IRanGd=          0 ScrnBf=T ScrnGd=T RCrit=4.00D+00 DoMicB=T.
 IPart= 13         4977 of         5682 points in       7 batches and       32 microbatches, Max-NSigAt=       8 Max-NSgAt2=       8
 IPart= 24         4466 of         4720 points in       4 batches and       15 microbatches, Max-NSigAt=       8 Max-NSgAt2=       8
 IPart= 17         4852 of         5524 points in       6 batches and       34 microbatches, Max-NSigAt=       8 Max-NSgAt2=       8
 IPart= 29         5095 of         5524 points in       6 batches and       23 microbatches, Max-NSigAt=       8 Max-NSgAt2=       8
 IPart=  1         6037 of         6682 points in       7 batches and       14 microbatches, Max-NSigAt=       8 Max-NSgAt2=       8
 IPart= 12         6084 of         7066 points in       9 batches and       53 microbatches, Max-NSigAt=       8 Max-NSgAt2=       8
 IPart= 21         5970 of         6998 points in       9 batches and       36 microbatches, Max-NSigAt=       8 Max-NSgAt2=       8
 IPart= 27         5624 of         6454 points in       8 batches and       35 microbatches, Max-NSigAt=       8 Max-NSgAt2=       8
 IPart= 23         5875 of         6824 points in       9 batches and       48 microbatches, Max-NSigAt=       8 Max-NSgAt2=       8
 IPart=  8         6388 of         7904 points in      10 batches and       54 microbatches, Max-NSigAt=       8 Max-NSgAt2=       8
 IPart= 14         4935 of         5118 points in       5 batches and       28 microbatches, Max-NSigAt=       8 Max-NSgAt2=       8
 IPart=  2         5089 of         5552 points in       6 batches and       23 microbatches, Max-NSigAt=       8 Max-NSgAt2=       8
 IPart= 22         4436 of         4720 points in       4 batches and       18 microbatches, Max-NSigAt=       8 Max-NSgAt2=       8
 IPart=  0         5131 of         5576 points in       6 batches and       40 microbatches, Max-NSigAt=       8 Max-NSgAt2=       8
 IPart= 10         5298 of         6092 points in       8 batches and       37 microbatches, Max-NSigAt=       8 Max-NSgAt2=       8
 IPart=  6         4407 of         4790 points in       6 batches and       34 microbatches, Max-NSigAt=       8 Max-NSgAt2=       8
 IPart= 31         4868 of         5074 points in       5 batches and       24 microbatches, Max-NSigAt=       8 Max-NSgAt2=       8
 IPart= 15         5400 of         5996 points in       7 batches and       28 microbatches, Max-NSigAt=       8 Max-NSgAt2=       8
 IPart= 25         5596 of         6422 points in       9 batches and       54 microbatches, Max-NSigAt=       8 Max-NSgAt2=       8
 IPart=  9         5252 of         5722 points in       6 batches and       26 microbatches, Max-NSigAt=       8 Max-NSgAt2=       8
 IPart= 16         4449 of         4948 points in       6 batches and       42 microbatches, Max-NSigAt=       8 Max-NSgAt2=       8
 IPart= 30         5298 of         5576 points in       6 batches and       32 microbatches, Max-NSigAt=       8 Max-NSgAt2=       8
 IPart= 18         5336 of         5956 points in       6 batches and       32 microbatches, Max-NSigAt=       8 Max-NSgAt2=       8
 IPart= 11         5039 of         5324 points in       5 batches and       24 microbatches, Max-NSigAt=       8 Max-NSgAt2=       8
 IPart=  4         5186 of         5552 points in       6 batches and       41 microbatches, Max-NSigAt=       8 Max-NSgAt2=       8
 IPart= 19         5454 of         5928 points in       6 batches and       30 microbatches, Max-NSigAt=       8 Max-NSgAt2=       8
 IPart= 20         4880 of         5338 points in       6 batches and       32 microbatches, Max-NSigAt=       8 Max-NSgAt2=       8
 IPart=  3         5011 of         5324 points in       5 batches and       25 microbatches, Max-NSigAt=       8 Max-NSgAt2=       8
 IPart= 28         5047 of         5352 points in       5 batches and       31 microbatches, Max-NSigAt=       8 Max-NSgAt2=       8
 IPart=  5         5861 of         6300 points in       7 batches and       32 microbatches, Max-NSigAt=       8 Max-NSgAt2=       8
 IPart= 26         5179 of         5308 points in       5 batches and       24 microbatches, Max-NSigAt=       8 Max-NSgAt2=       8
 IPart=  7         5558 of         5866 points in       6 batches and       29 microbatches, Max-NSigAt=       8 Max-NSgAt2=       8
 Forces at end of L703
 I=    0 X=   2.860944333927D-05 Y=  -1.363162239798D-05 Z=   3.442252788144D-06
 I=    1 X=   8.321752451996D-03 Y=   1.753592764755D-02 Z=   5.636124253907D-03
 I=    2 X=   3.364664383057D-03 Y=   7.087673451320D-03 Z=   2.511750799630D-04
 I=    3 X=   1.583503830474D-03 Y=   7.110497663501D-03 Z=   2.961413203734D-03
 I=    4 X=   4.511480602537D-03 Y=   5.719892919380D-03 Z=   2.961376789873D-03
 I=    5 X=  -8.418743401564D-03 Y=  -1.753279909108D-02 Z=  -5.499967812696D-03
 I=    6 X=  -1.536778560302D-03 Y=  -7.090976742918D-03 Z=  -2.997813507133D-03
 I=    7 X=  -4.481850328629D-03 Y=  -5.719296740915D-03 Z=  -3.004388502812D-03
 I=    8 X=  -3.344028977586D-03 Y=  -7.110919106844D-03 Z=  -3.079195048374D-04
 FrcOut:
 IF    =    45 IFX   =    69 IFXYZ =    93
 IFFX  =   117 IFFFX =   417 IFLen =    24
 IFFLen=   300 IFFFLn=     0 IEDerv=   417
 LEDerv=  1205 IFroze=  1904 ICStrt=108261
 FCEst1:  Generated internal coordinate force constants:
                1             2             3             4             5 
      1  0.595566D+00
      2 -0.125771D+00  0.390285D+00
      3 -0.396921D-01 -0.836151D-01  0.629200D+00
      4 -0.846664D-01  0.924492D-02 -0.671034D-02  0.623710D-01
      5  0.924489D-02 -0.695722D-01 -0.141388D-01 -0.427700D-02  0.553852D-01
      6  0.000000D+00  0.000000D+00 -0.355866D+00  0.000000D+00  0.000000D+00
      7 -0.317421D+00  0.358052D-02  0.978610D-01  0.149060D-01  0.131648D-03
      8 -0.945184D-02 -0.695386D-01  0.139952D-01  0.339662D-03  0.991406D-03
      9  0.911590D-01  0.851630D-02 -0.122984D+00  0.354542D-01  0.313127D-03
     10 -0.165751D+00  0.114319D+00 -0.510290D-01  0.632264D-02 -0.666480D-02
     11  0.127351D+00 -0.221209D+00  0.846702D-01 -0.687285D-02  0.957483D-02
     12 -0.510361D-01  0.760133D-01 -0.122982D+00 -0.221730D-01  0.276667D-01
     13 -0.335651D-01  0.114663D-02  0.366995D-03  0.106666D-02  0.156528D-02
     14  0.114271D-02 -0.316867D-01  0.761414D-03  0.156533D-02  0.362073D-02
     15  0.364515D-03  0.758796D-03 -0.338725D-01 -0.657093D-02 -0.138410D-01
     16 -0.218758D-02  0.607468D-03  0.136720D-02 -0.187469D-03  0.889986D-04
     17 -0.121548D-01  0.362530D-02  0.680349D-02  0.229746D-03 -0.109069D-03
     18 -0.520095D-02  0.144411D-02  0.325094D-02 -0.446413D-03  0.211929D-03
     19  0.695511D-02 -0.469159D-02  0.440793D-02 -0.296569D-03  0.140792D-03
     20  0.806828D-02 -0.552104D-02  0.536257D-02  0.000000D+00  0.000000D+00
     21  0.440583D-02 -0.311673D-02  0.325142D-02  0.446299D-03 -0.211874D-03
     22  0.106981D-02  0.156407D-02 -0.657169D-02  0.484074D-03 -0.229807D-03
     23  0.157106D-02  0.361737D-02 -0.138390D-01 -0.229885D-03  0.109135D-03
     24  0.000000D+00  0.000000D+00  0.257615D-05  0.000000D+00  0.000000D+00
                6             7             8             9            10 
      6  0.355866D+00
      7  0.000000D+00  0.311679D+00
      8  0.000000D+00 -0.165888D-02  0.553666D-01
      9  0.000000D+00 -0.104818D+00 -0.394566D-02  0.106436D+00
     10  0.000000D+00 -0.697668D-02  0.229223D-01 -0.165941D-01  0.159450D+00
     11  0.000000D+00 -0.266012D-02  0.955813D-02 -0.632712D-02 -0.125884D+00
     12  0.000000D+00  0.558945D-02 -0.168568D-01  0.132946D-01  0.632139D-01
     13  0.000000D+00 -0.218660D-02 -0.121513D-01 -0.520084D-02  0.695531D-02
     14  0.000000D+00  0.606811D-03  0.362247D-02  0.144331D-02 -0.469211D-02
     15  0.000000D+00  0.136780D-02  0.680715D-02  0.325334D-02  0.440927D-02
     16  0.000000D+00  0.726566D-04 -0.889783D-04  0.172814D-03  0.114864D-03
     17  0.000000D+00 -0.890413D-04  0.109044D-03 -0.211786D-03 -0.140767D-03
     18  0.000000D+00  0.173014D-03 -0.211881D-03  0.411516D-03  0.273522D-03
     19  0.000000D+00  0.114940D-03 -0.140760D-03  0.273386D-03  0.181711D-03
     20  0.000000D+00  0.000000D+00  0.000000D+00  0.000000D+00  0.000000D+00
     21  0.000000D+00 -0.172970D-03  0.211826D-03 -0.411411D-03 -0.273452D-03
     22  0.000000D+00 -0.187610D-03  0.229755D-03 -0.446233D-03 -0.296596D-03
     23  0.000000D+00  0.890955D-04 -0.109110D-03  0.211915D-03  0.140853D-03
     24  0.000000D+00  0.000000D+00  0.000000D+00  0.000000D+00  0.000000D+00
               11            12            13            14            15 
     11  0.207596D+00
     12 -0.837062D-01  0.106435D+00
     13  0.806668D-02  0.440576D-02  0.595785D+00
     14 -0.552045D-02 -0.311701D-02 -0.125822D+00  0.390244D+00
     15  0.536312D-02  0.325243D-02 -0.397678D-01 -0.834879D-01  0.629022D+00
     16  0.000000D+00 -0.172814D-03 -0.317586D+00  0.363478D-02  0.978395D-01
     17  0.000000D+00  0.211785D-03 -0.940418D-02 -0.695613D-01  0.139694D-01
     18  0.000000D+00 -0.411515D-03  0.911350D-01  0.849386D-02 -0.122959D+00
     19  0.000000D+00 -0.273385D-03 -0.165811D+00  0.114330D+00 -0.510306D-01
     20  0.000000D+00  0.000000D+00  0.127358D+00 -0.221176D+00  0.846651D-01
     21  0.000000D+00  0.411410D-03 -0.510291D-01  0.760031D-01 -0.122951D+00
     22  0.000000D+00  0.446231D-03 -0.846583D-01  0.923399D-02 -0.661173D-02
     23  0.000000D+00 -0.211914D-03  0.924088D-02 -0.695427D-01 -0.142347D-01
     24  0.000000D+00  0.000000D+00  0.899541D-04 -0.968201D-04 -0.355745D+00
               16            17            18            19            20 
     16  0.311845D+00
     17 -0.171438D-02  0.553801D-01
     18 -0.104794D+00 -0.391432D-02  0.106397D+00
     19 -0.696719D-02  0.229227D-01 -0.165987D-01  0.159499D+00
     20 -0.265815D-02  0.956427D-02 -0.633325D-02 -0.125897D+00  0.207564D+00
     21  0.558258D-02 -0.168583D-01  0.132991D-01  0.632169D-01 -0.836887D-01
     22  0.148951D-01  0.350763D-03  0.354588D-01  0.632399D-02 -0.687100D-02
     23  0.130306D-03  0.991573D-03  0.309654D-03 -0.666442D-02  0.956918D-02
     24  0.507444D-05  0.000000D+00  0.120802D-04  0.450219D-05 -0.570508D-05
               21            22            23            24 
     21  0.106418D+00
     22 -0.221760D-01  0.623695D-01
     23  0.276606D-01 -0.427789D-02  0.553646D-01
     24 -0.172867D-04 -0.993495D-04  0.103477D-03  0.355747D+00
 Quadrupole    =-1.01307524D-01 2.61106678D-01-1.59799154D-01
                 2.22144205D-01 6.94975891D-02 1.47483522D-01
 -------------------------------------------------------------------
 Center     Atomic                   Forces (Hartrees/Bohr)
 Number     Number              X              Y              Z
 -------------------------------------------------------------------
      1        6          -0.008321752   -0.017535928   -0.005636124
      2        1          -0.003364664   -0.007087673   -0.000251175
      3        1          -0.001583504   -0.007110498   -0.002961413
      4        1          -0.004511481   -0.005719893   -0.002961377
      5        6           0.008418743    0.017532799    0.005499968
      6        1           0.001536779    0.007090977    0.002997814
      7        1           0.004481850    0.005719297    0.003004389
      8        1           0.003344029    0.007110919    0.000307920
 -------------------------------------------------------------------
 Cartesian Forces:  Max     0.017535928 RMS     0.007034567
 From PutF, contents of force:
   1   -0.2511750800D-03
   2   -0.3119816406D-03
   3   -0.3080402866D-03
   4    0.6846222620D-02
   5    0.6842761108D-02
   6   -0.1342325751D-01
   7   -0.2543187220D-03
   8   -0.3073868852D-03
   9   -0.3092544222D-03
  10    0.6855254300D-02
  11    0.6845917921D-02
  12    0.1342190538D-01
  13    0.4497702041D-05
  14    0.6042259941D-05
  15   -0.3536573603D-05
  16   -0.4840032934D-05
  17    0.3185583730D-06
  18   -0.4310983567D-01
 -----------------------------------------------------------------------------------------------
                       Internal Coordinate Forces (Hartree/Bohr or radian)
  Cent   Atom   N1       Length/X         N2         Alpha/Y        N3         Beta/Z          J
 -----------------------------------------------------------------------------------------------
      1  C 
      2  H        1  -0.000251(     1)
      3  H        1  -0.000312(     2)      2   0.006846(     8)
      4  H        1  -0.000308(     3)      2   0.006843(     9)      3  -0.013423(    14)     0
      5  C        1  -0.043110(     4)      2   0.000000(    10)      3  -0.000005(    15)     0
      6  H        5  -0.000254(     5)      1   0.000004(    11)      2  -0.000004(    16)     0
      7  H        5  -0.000307(     6)      6   0.006855(    12)      1   0.000006(    17)     0
      8  H        5  -0.000309(     7)      6   0.006846(    13)      7   0.013422(    18)     0
 -----------------------------------------------------------------------------------------------
 Internal  Forces:  Max     0.043109836 RMS     0.011563484
 Force constants in Cartesian coordinates: 
                1             2             3             4             5 
      1  0.595566D+00
      2 -0.125771D+00  0.390285D+00
      3 -0.396921D-01 -0.836151D-01  0.629200D+00
      4 -0.846664D-01  0.924492D-02 -0.671034D-02  0.623710D-01
      5  0.924489D-02 -0.695722D-01 -0.141388D-01 -0.427700D-02  0.553852D-01
      6  0.000000D+00  0.000000D+00 -0.355866D+00  0.000000D+00  0.000000D+00
      7 -0.317421D+00  0.358052D-02  0.978610D-01  0.149060D-01  0.131648D-03
      8 -0.945184D-02 -0.695386D-01  0.139952D-01  0.339662D-03  0.991406D-03
      9  0.911590D-01  0.851630D-02 -0.122984D+00  0.354542D-01  0.313127D-03
     10 -0.165751D+00  0.114319D+00 -0.510290D-01  0.632264D-02 -0.666480D-02
     11  0.127351D+00 -0.221209D+00  0.846702D-01 -0.687285D-02  0.957483D-02
     12 -0.510361D-01  0.760133D-01 -0.122982D+00 -0.221730D-01  0.276667D-01
     13 -0.335651D-01  0.114663D-02  0.366995D-03  0.106666D-02  0.156528D-02
     14  0.114271D-02 -0.316867D-01  0.761414D-03  0.156533D-02  0.362073D-02
     15  0.364515D-03  0.758796D-03 -0.338725D-01 -0.657093D-02 -0.138410D-01
     16 -0.218758D-02  0.607468D-03  0.136720D-02 -0.187469D-03  0.889986D-04
     17 -0.121548D-01  0.362530D-02  0.680349D-02  0.229746D-03 -0.109069D-03
     18 -0.520095D-02  0.144411D-02  0.325094D-02 -0.446413D-03  0.211929D-03
     19  0.695511D-02 -0.469159D-02  0.440793D-02 -0.296569D-03  0.140792D-03
     20  0.806828D-02 -0.552104D-02  0.536257D-02  0.000000D+00  0.000000D+00
     21  0.440583D-02 -0.311673D-02  0.325142D-02  0.446299D-03 -0.211874D-03
     22  0.106981D-02  0.156407D-02 -0.657169D-02  0.484074D-03 -0.229807D-03
     23  0.157106D-02  0.361737D-02 -0.138390D-01 -0.229885D-03  0.109135D-03
     24  0.000000D+00  0.000000D+00  0.257615D-05  0.000000D+00  0.000000D+00
                6             7             8             9            10 
      6  0.355866D+00
      7  0.000000D+00  0.311679D+00
      8  0.000000D+00 -0.165888D-02  0.553666D-01
      9  0.000000D+00 -0.104818D+00 -0.394566D-02  0.106436D+00
     10  0.000000D+00 -0.697668D-02  0.229223D-01 -0.165941D-01  0.159450D+00
     11  0.000000D+00 -0.266012D-02  0.955813D-02 -0.632712D-02 -0.125884D+00
     12  0.000000D+00  0.558945D-02 -0.168568D-01  0.132946D-01  0.632139D-01
     13  0.000000D+00 -0.218660D-02 -0.121513D-01 -0.520084D-02  0.695531D-02
     14  0.000000D+00  0.606811D-03  0.362247D-02  0.144331D-02 -0.469211D-02
     15  0.000000D+00  0.136780D-02  0.680715D-02  0.325334D-02  0.440927D-02
     16  0.000000D+00  0.726566D-04 -0.889783D-04  0.172814D-03  0.114864D-03
     17  0.000000D+00 -0.890413D-04  0.109044D-03 -0.211786D-03 -0.140767D-03
     18  0.000000D+00  0.173014D-03 -0.211881D-03  0.411516D-03  0.273522D-03
     19  0.000000D+00  0.114940D-03 -0.140760D-03  0.273386D-03  0.181711D-03
     20  0.000000D+00  0.000000D+00  0.000000D+00  0.000000D+00  0.000000D+00
     21  0.000000D+00 -0.172970D-03  0.211826D-03 -0.411411D-03 -0.273452D-03
     22  0.000000D+00 -0.187610D-03  0.229755D-03 -0.446233D-03 -0.296596D-03
     23  0.000000D+00  0.890955D-04 -0.109110D-03  0.211915D-03  0.140853D-03
     24  0.000000D+00  0.000000D+00  0.000000D+00  0.000000D+00  0.000000D+00
               11            12            13            14            15 
     11  0.207596D+00
     12 -0.837062D-01  0.106435D+00
     13  0.806668D-02  0.440576D-02  0.595785D+00
     14 -0.552045D-02 -0.311701D-02 -0.125822D+00  0.390244D+00
     15  0.536312D-02  0.325243D-02 -0.397678D-01 -0.834879D-01  0.629022D+00
     16  0.000000D+00 -0.172814D-03 -0.317586D+00  0.363478D-02  0.978395D-01
     17  0.000000D+00  0.211785D-03 -0.940418D-02 -0.695613D-01  0.139694D-01
     18  0.000000D+00 -0.411515D-03  0.911350D-01  0.849386D-02 -0.122959D+00
     19  0.000000D+00 -0.273385D-03 -0.165811D+00  0.114330D+00 -0.510306D-01
     20  0.000000D+00  0.000000D+00  0.127358D+00 -0.221176D+00  0.846651D-01
     21  0.000000D+00  0.411410D-03 -0.510291D-01  0.760031D-01 -0.122951D+00
     22  0.000000D+00  0.446231D-03 -0.846583D-01  0.923399D-02 -0.661173D-02
     23  0.000000D+00 -0.211914D-03  0.924088D-02 -0.695427D-01 -0.142347D-01
     24  0.000000D+00  0.000000D+00  0.899541D-04 -0.968201D-04 -0.355745D+00
               16            17            18            19            20 
     16  0.311845D+00
     17 -0.171438D-02  0.553801D-01
[...]
     7   1    -0.26   0.02   0.48     0.16   0.07  -0.10    -0.26   0.02   0.48
     8   1    -0.38   0.18  -0.03    -0.39   0.03   0.03    -0.37   0.18  -0.03
                     13                     14                     15
                      A                      A                      A
 Frequencies --   3121.9705              3122.3393              3288.5253
 Red. masses --      1.0120                 1.0120                 1.1161
 Frc consts  --      5.8114                 5.8132                 7.1113
 IR Inten    --   9.864                 0.8774E-02              6.455    
  Atom  AN      X      Y      Z        X      Y      Z        X      Y      Z
     1   6    -0.00  -0.01  -0.00    -0.00  -0.01  -0.00    -0.01  -0.01   0.08
     2   1    -0.00  -0.01   0.42    -0.00  -0.01   0.40     0.00   0.00  -0.69
     3   1     0.37  -0.01  -0.20     0.35  -0.01  -0.18     0.33  -0.00  -0.16
     4   1    -0.32   0.18  -0.20    -0.31   0.17  -0.19    -0.26   0.14  -0.14
     5   6    -0.00  -0.01  -0.00     0.00   0.01   0.00    -0.05   0.01   0.02
     6   1     0.35  -0.01  -0.19    -0.37   0.01   0.20     0.38  -0.00  -0.20
     7   1    -0.31   0.17  -0.19     0.32  -0.18   0.20     0.19  -0.11   0.13
     8   1    -0.00  -0.01   0.40     0.00   0.01  -0.42    -0.01   0.00  -0.18
                     16                     17                     18
                      A                      A                      A
 Frequencies --   3288.5454              3288.9024              3288.9860
 Red. masses --      1.1164                 1.1165                 1.1166
 Frc consts  --      7.1134                 7.1158                 7.1165
 IR Inten    --   4.648                  3.927                  3.578    
  Atom  AN      X      Y      Z        X      Y      Z        X      Y      Z
     1   6     0.01  -0.01   0.05     0.09  -0.02  -0.01    -0.01   0.01  -0.01
     2   1     0.00   0.00  -0.43     0.02  -0.00   0.04    -0.00  -0.00   0.06
     3   1     0.12  -0.01  -0.05    -0.63   0.00   0.34     0.06   0.00  -0.03
     4   1    -0.23   0.13  -0.13    -0.51   0.30  -0.32     0.10  -0.06   0.06
     5   6     0.08  -0.02  -0.02    -0.01  -0.00   0.02     0.02  -0.02   0.09
     6   1    -0.58   0.00   0.31     0.10  -0.00  -0.05     0.17  -0.01  -0.07
     7   1    -0.38   0.22  -0.24    -0.01   0.01  -0.01    -0.45   0.26  -0.26
     8   1     0.01  -0.01   0.15    -0.00   0.00  -0.13     0.01   0.00  -0.77

 -------------------
 - Thermochemistry -
 -------------------
 Temperature   298.150 Kelvin.  Pressure   1.00000 Atm.
 Atom     1 has atomic number  6 and mass  12.00000
 Atom     2 has atomic number  1 and mass   1.00783
 Atom     3 has atomic number  1 and mass   1.00783
 Atom     4 has atomic number  1 and mass   1.00783
 Atom     5 has atomic number  6 and mass  12.00000
 Atom     6 has atomic number  1 and mass   1.00783
 Atom     7 has atomic number  1 and mass   1.00783
 Atom     8 has atomic number  1 and mass   1.00783
 Molecular mass:    30.04695 amu.
 Principal axes and moments of inertia in atomic units:
                           1         2         3
     Eigenvalues --    24.52826 203.76163 203.76311
           X            0.25944  -0.02931   0.96531
           Y            0.95298  -0.15431  -0.26081
           Z            0.15660   0.98759  -0.01210
 This molecule is an asymmetric top.
 Rotational symmetry number  1.
 Rotational temperatures (Kelvin)      3.53118     0.42507     0.42507
 Rotational constants (GHZ):          73.57803     8.85712     8.85706
    1 imaginary frequencies ignored.
 Zero-point vibrational energy     173369.9 (Joules/Mol)
                                   41.43640 (Kcal/Mol)
 Warning -- explicit consideration of   5 degrees of freedom as
           vibrations may cause significant error
 Vibrational temperatures:     85.16   648.12   653.01   883.19   885.69
          (Kelvin)           1176.60  1250.52  2048.26  2049.26  2055.59
                             2056.59  4491.81  4492.34  4731.45  4731.48
                             4731.99  4732.11
 
 Zero-point correction=                           0.066033 (Hartree/Particle)
 Thermal correction to Energy=                    0.070670
 Thermal correction to Enthalpy=                  0.071614
 Thermal correction to Gibbs Free Energy=         0.040726
 Sum of electronic and zero-point Energies=            -79.637624
 Sum of electronic and thermal Energies=               -79.632987
 Sum of electronic and thermal Enthalpies=             -79.632042
 Sum of electronic and thermal Free Energies=          -79.662931
 
                     E (Thermal)             CV                S
                      KCal/Mol        Cal/Mol-Kelvin    Cal/Mol-Kelvin
 Total                   44.346             14.202             65.010
 Electronic               0.000              0.000              0.000
 Translational            0.889              2.981             36.134
 Rotational               0.889              2.981             21.548
 Vibrational             42.569              8.240              7.328
 Vibration     1          0.597              1.974              4.484
 Vibration     2          0.809              1.360              0.794
 Vibration     3          0.812              1.352              0.784
 Vibration     4          0.973              1.003              0.426
 Vibration     5          0.975              0.999              0.424
                       Q            Log10(Q)             Ln(Q)
 Total Bot       0.185091D-18        -18.732615        -43.133440
 Total V=0       0.436962D+12         11.640444         26.803113
 Vib (Bot)       0.250280D-29        -29.601575        -68.160144
 Vib (Bot)    1  0.348911D+01          0.542714          1.249646
 Vib (Bot)    2  0.380547D+00         -0.419591         -0.966144
 Vib (Bot)    3  0.376651D+00         -0.424061         -0.976436
 Vib (Bot)    4  0.239779D+00         -0.620188         -1.428036
 Vib (Bot)    5  0.238667D+00         -0.622207         -1.432685
 Vib (V=0)       0.590860D+01          0.771485          1.776409
 Vib (V=0)    1  0.402475D+01          0.604739          1.392463
 Vib (V=0)    2  0.112834D+01          0.052442          0.120751
 Vib (V=0)    3  0.112599D+01          0.051535          0.118664
 Vib (V=0)    4  0.105452D+01          0.023055          0.053087
 Vib (V=0)    5  0.105404D+01          0.022858          0.052632
 Electronic      0.100000D+01          0.000000          0.000000
 Translational   0.647375D+07          6.811156         15.683266
 Rotational      0.114236D+05          4.057804          9.343438
 -------------------------------------------------------------------
 Center     Atomic                   Forces (Hartrees/Bohr)
 Number     Number              X              Y              Z
 -------------------------------------------------------------------
      1        6          -0.009127574   -0.033632653   -0.005492753
      2        1          -0.000003798    0.000014169   -0.000021113
      3        1           0.000019043    0.000001331   -0.000012273
      4        1          -0.000027700    0.000005890   -0.000008495
      5        6           0.009108643    0.033640543    0.005585635
      6        1           0.000014723   -0.000020418   -0.000022728
      7        1           0.000013809   -0.000029686   -0.000000375
      8        1           0.000002853    0.000020824   -0.000027898
 -------------------------------------------------------------------
 Cartesian Forces:  Max     0.033640543 RMS     0.010186790
 -----------------------------------------------------------------------------------------------
                       Internal Coordinate Forces (Hartree/Bohr or radian)
  Cent   Atom   N1       Length/X         N2         Alpha/Y        N3         Beta/Z          J
 -----------------------------------------------------------------------------------------------
      1  C 
      2  H        1  -0.000021(     1)
      3  H        1   0.000023(     2)      2   0.000004(     8)
      4  H        1   0.000028(     3)      2  -0.000010(     9)      3  -0.000016(    14)     0
      5  C        1  -0.035269(     4)      2   0.000033(    10)      3   0.000046(    15)     0
      6  H        5  -0.000024(     5)      1   0.000048(    11)      2  -0.000005(    16)     0
      7  H        5   0.000024(     6)      6   0.000003(    12)      1   0.000079(    17)     0
      8  H        5   0.000028(     7)      6   0.000006(    13)      7   0.000038(    18)     0
 -----------------------------------------------------------------------------------------------
 Internal  Forces:  Max     0.035268811 RMS     0.008312996

 GradGradGradGradGradGradGradGradGradGradGradGradGradGradGradGradGradGrad
 Berny optimization.
 Search for a local minimum.
 Step number   1 out of a maximum of    2
 All quantities printed in internal units (Hartrees-Bohrs-Radians)
 Second derivative matrix not updated -- analytic derivatives used.
 The second derivative matrix:
                          R1        R2        R3        A2        A3
           R1           0.36927
           R2           0.00026   0.36941
           R3           0.00025   0.00026   0.36939
           A2           0.01636   0.00257  -0.01430   0.18120
           A3           0.01635  -0.01430   0.00253   0.07525   0.18194
           D3           0.00036  -0.00712  -0.00838   0.03899   0.02720
           R21          0.00009  -0.00016   0.00009   0.00006  -0.00008
           R22          0.00009   0.00009  -0.00016  -0.00009   0.00006
           R23         -0.00016   0.00009   0.00009  -0.00019  -0.00019
           A22         -0.00008  -0.00019   0.00006  -0.00060  -0.00004
           A23          0.00006  -0.00019  -0.00008   0.00059  -0.00059
           D23          0.00021  -0.00043  -0.00045  -0.00015   0.00014
           ANG2         0.00039  -0.00078   0.00040  -0.00280   0.00227
           DH3          0.00067   0.00000  -0.00066   0.00096  -0.00185
           DH2          0.00000   0.00000   0.00000   0.00023  -0.00023
           DH1          0.00001  -0.00129   0.00130  -0.01129   0.01129
           ANG1        -0.00150   0.00074   0.00076   0.00300   0.00298
           BB          -0.00069  -0.00067  -0.00068  -0.00355  -0.00352
                          D3        R21       R22       R23       A22
           D3           0.05991
           R21          0.00046   0.36928
           R22         -0.00021   0.00027   0.36938
           R23          0.00043   0.00025   0.00025   0.36943
           A22         -0.00200   0.01640   0.00261  -0.01429   0.18157
           A23          0.00110   0.01630  -0.01424   0.00257   0.07530
           D23          0.00191  -0.00032   0.00706   0.00835  -0.03888
           ANG2        -0.00438  -0.00154   0.00073   0.00070   0.00292
           DH3          0.00790  -0.00001  -0.00129   0.00131  -0.01106
           DH2         -0.00003  -0.00008   0.00003   0.00001  -0.00041
           DH1         -0.03149  -0.00066   0.00070   0.00007   0.00205
           ANG1        -0.01932   0.00034   0.00038  -0.00078   0.00246
           BB           0.01150  -0.00067  -0.00068  -0.00069  -0.00358
                          A23       D23      ANG2       DH3       DH2
           A23          0.18150
           D23         -0.02742   0.06003
           ANG2         0.00317   0.01959   0.06505
           DH3          0.01135   0.03203   0.00005   0.06426
           DH2          0.00035  -0.00012   0.00025  -0.00077   0.00100
           DH1         -0.00109   0.00026   0.01314  -0.00726  -0.00049
           ANG1        -0.00265  -0.00838  -0.00745  -0.01232  -0.00048
           BB          -0.00350  -0.01141   0.00001   0.00014   0.00005
                          DH1      ANG1       BB
           DH1          0.06353
           ANG1         0.00014   0.06611
           BB           0.00016   0.00007  -0.05418
 ITU=  0
     Eigenvalues ---    0.00096   0.01842   0.01935   0.05178   0.06194
     Eigenvalues ---    0.08399   0.09112   0.11493   0.12535   0.26058
     Eigenvalues ---    0.26181   0.37009   0.37014   0.37023   0.37036
     Eigenvalues ---    0.37549   0.375711000.00000
 Angle between quadratic step and forces=  62.70 degrees.
 Linear search not attempted -- first point.
 Variable       Old X    -DE/DX   Delta X   Delta X   Delta X     New X
                                 (Linear)    (Quad)   (Total)
    R1        2.03954  -0.00002   0.00000  -0.00005  -0.00005   2.03949
    R2        2.03943   0.00002   0.00000   0.00006   0.00006   2.03950
    R3        2.03941   0.00003   0.00000   0.00009   0.00009   2.03949
    A2        2.05188   0.00000   0.00000   0.00008   0.00008   2.05195
    A3        2.05205  -0.00001   0.00000  -0.00023  -0.00023   2.05182
    D3        3.67417  -0.00002   0.00000   0.00051   0.00051   3.67468
   R21        2.03955  -0.00002   0.00000  -0.00006  -0.00006   2.03949
   R22        2.03941   0.00002   0.00000   0.00007   0.00007   2.03948
   R23        2.03940   0.00003   0.00000   0.00008   0.00008   2.03948
   A22        2.05186   0.00000   0.00000   0.00005   0.00005   2.05190
   A23        2.05210   0.00001   0.00000  -0.00015  -0.00015   2.05195
   D23        2.60942   0.00004   0.00000  -0.00051  -0.00051   2.60892
   ANG2       1.72787   0.00005   0.00000   0.00086   0.00086   1.72873
   DH3        1.83548   0.00008   0.00000   0.00170   0.00170   1.83718
   DH2        1.04764  -0.00001   0.00000  -0.00348  -0.00348   1.04417
   DH1        1.83660   0.00005   0.00000   0.00101   0.00101   1.83761
   ANG1       1.72803   0.00003   0.00000   0.00097   0.00097   1.72900
    BB        4.91329  -0.03527   0.00000   0.00000   0.00000   4.91329
         Item               Value     Threshold  Converged?
 Maximum Force            0.000079     0.000450     YES
 RMS     Force            0.000032     0.000300     YES
 Maximum Displacement     0.003477     0.001800     NO 
 RMS     Displacement     0.001008     0.001200     YES
 Predicted change in Energy=-1.286635D-07
 GradGradGradGradGradGradGradGradGradGradGradGradGradGradGradGradGradGrad


 Test job not archived.
 1\1\GINC-NODE-6-11\Freq\UwB97XD\Aug-CC-pVTZ\C2H6\CAVALLOTTI\27-May-202
 3\1\\#N Geom=AllCheck Guess=TCheck SCRF=Check Test GenChk UwB97XD/Aug-
 CC-pVTZ Freq\\geom 0\\0,1\C\H,1,R1\H,1,R2,2,A2\H,1,R3,2,A3,3,D3,0\C,1,
 BB,2,ANG1,3,DH1,0\H,5,R21,1,ANG2,2,DH2,0\H,5,R22,6,A22,1,DH3,0\H,5,R23
 ,6,A23,7,D23,0\\R1=1.07927644\R2=1.07922165\R3=1.07920685\A2=117.56393
 085\A3=117.57363953\D3=210.51463224\R21=1.07928265\R22=1.07921176\R23=
 1.07920277\A22=117.56272092\A23=117.57681817\D23=149.50894608\ANG2=98.
 99968347\DH3=105.1654929\DH2=60.02557249\DH1=105.22946445\ANG1=99.0090
 8681\BB=2.6\\Version=EM64L-G09RevD.01\HF=-79.7036568\S2=0.41029\S2-1=0
 .\S2A=0.006792\RMSD=4.895e-10\RMSF=1.019e-02\ZeroPoint=0.0660331\Therm
 al=0.0706702\Dipole=0.0000452,-0.0000705,0.0003795\DipoleDeriv=0.00478
 33,-0.0003414,-0.0002591,-0.0006317,0.0025084,-0.0009496,-0.0000495,-0
 .0002752,0.0048662,0.0457995,-0.0088156,-0.010653,-0.0089212,0.0153525
 ,-0.0389572,-0.008212,-0.0302916,-0.064686,-0.0486812,-0.0312443,0.040
 7891,-0.0389404,0.0147671,0.0101506,0.0382728,0.0059394,0.0299206,-0.0
 01911,0.04042,-0.0298742,0.0485089,-0.0325826,0.0297616,-0.0299899,0.0
 246998,0.0298909,0.0047537,-0.0005092,-0.0000475,-0.0006353,0.0019767,
 -0.0000621,-0.0001722,-0.0007516,0.0049822,-0.0486632,-0.0311946,0.040
 7663,-0.0388314,0.014993,0.0099035,0.0384305,0.0060338,0.029779,-0.001
 9289,0.0405274,-0.0300479,0.0484333,-0.0322477,0.0296185,-0.030136,0.0
 24948,0.0296281,0.0458478,-0.0088423,-0.0106736,-0.0089822,0.0152326,-
 0.0394653,-0.0081437,-0.0303026,-0.0643809\Polar=32.6564387,9.5314087,
 65.0346474,1.5599811,5.7368576,30.9984679\PG=C01 [X(C2H6)]\NImag=1\\0.
 57385934,-0.15305536,0.05434747,-0.02528557,-0.09260964,0.60007182,-0.
 05036026,0.00949686,-0.00101756,0.04364874,0.00951400,-0.01803529,-0.0
 0371440,-0.00744391,0.01839215,0.00148977,0.00546607,-0.35537838,-0.00
 126559,-0.00462045,0.36926807,-0.28994271,0.00931417,0.12662611,0.0044
 2579,0.00059934,-0.00348579,0.29859729,0.00110587,-0.01795489,0.010154
 40,0.00094890,0.00180218,0.00016479,-0.00757490,0.01825645,0.12413976,
 0.00591083,-0.11577151,0.02574829,0.00076138,-0.00723161,-0.13439004,-
 0.00446835,0.11436248,-0.22434478,0.11237793,-0.10392056,0.00307882,-0
 .00134372,0.00310366,-0.01273115,0.01158038,-0.01359187,0.23291613,0.1
 2054018,-0.08359217,0.07294113,-0.00167656,0.00315015,-0.00160063,-0.0
 0222682,0.00316792,-0.00075727,-0.11895594,0.08399279,-0.10394033,0.06
 800716,-0.11593904,-0.02178857,0.01371813,-0.00722592,0.01132233,-0.00
 752878,0.00851803,0.11349247,-0.07199195,0.11452375,-0.00959594,0.0264
 2352,0.00433881,-0.00048894,-0.00118074,0.00026479,-0.00034277,-0.0063
 0255,-0.00184659,0.00121775,0.00295421,0.00083648,0.57376048,0.0264258
 6,0.08026707,0.01594708,-0.00117992,-0.00451226,0.00098170,0.00030122,
 -0.00446423,-0.00149698,-0.00367859,-0.00603942,-0.00221568,-0.1530272
 3,0.05381757,0.00433182,0.01592957,-0.01415931,-0.00177058,-0.00649223
 ,0.00048705,0.00018685,0.00196664,0.00034012,0.00083956,0.00178889,0.0
 0034038,-0.02491118,-0.09140915,0.60069943,-0.00034348,0.00029806,0.00
 018803,-0.00014778,-0.00019144,-0.00012184,0.00009204,-0.00011057,-0.0
 0016458,0.00004880,-0.00011029,0.00002494,-0.28980745,0.00960723,0.126
 56801,0.29846694,-0.00631812,-0.00449489,0.00196365,0.00003976,0.00066
 202,-0.00024016,-0.00011117,-0.00185659,-0.00046271,0.00031514,0.00039
 166,0.00041236,0.00141524,-0.01789862,0.00993135,-0.00788641,0.0182468
 1,-0.00183349,-0.00148877,0.00033556,-0.00008333,0.00014530,-0.0000412
 6,-0.00016353,-0.00045821,-0.00021255,0.00018715,0.00036562,0.00003720
 ,0.12410968,0.00567123,-0.11584372,-0.13433625,-0.00423042,0.11441286,
 0.00121307,-0.00369285,0.00083683,0.00012730,0.00050732,-0.00001673,0.
 00004848,0.00031387,0.00018817,-0.00031188,-0.00079811,-0.00009258,-0.
 22439765,0.11207956,-0.10422628,-0.01273499,0.01153944,-0.01361998,0.2
 3297327,0.00294809,-0.00608451,0.00179149,0.00027581,0.00038700,-0.000
 26774,-0.00011053,0.00039144,0.00036711,-0.00079878,-0.00145138,-0.000
 48254,0.12021867,-0.08311299,0.07284068,-0.00219922,0.00314586,-0.0007
 4873,-0.11861043,0.08354585,0.00082987,-0.00220838,0.00033817,0.000144
 81,0.00008206,-0.00004074,0.00002496,0.00041072,0.00003698,-0.00009188
 ,-0.00047864,-0.00021290,-0.10427327,0.06789742,-0.11631496,0.01133028
 ,-0.00751665,0.00853810,0.11382238,-0.07187550,0.11491149,-0.00048522,
 -0.00116233,-0.00176610,-0.00028367,-0.00046086,0.00003171,-0.00014697
 ,0.00003900,-0.00008315,0.00012631,0.00027333,0.00014525,-0.05034547,0
 .00947188,-0.00101820,0.00442592,0.00100612,0.02573975,0.00308240,-0.0
 0172362,-0.02178715,0.04362670,-0.00116052,-0.00445278,-0.00647371,-0.
 00046093,-0.00184593,0.00011643,-0.00019131,0.00065773,0.00014599,0.00
 050357,0.00038046,0.00008130,0.00949888,-0.01805711,-0.00455576,0.0005
 9264,0.00180375,0.00074398,-0.00133881,0.00317874,0.01368898,-0.007443
 53,0.01833515,0.00026817,0.00099316,0.00050268,0.00003253,0.00012021,0
 .00016279,-0.00012090,-0.00024120,-0.00004194,-0.00001855,-0.00026715,
 -0.00004150,0.00148126,0.00462438,-0.35554898,-0.00348860,0.00014259,-
 0.00722619,0.00310819,-0.00162477,-0.00725614,-0.00126210,-0.00374721,
 0.36944927\\0.00912757,0.03363265,0.00549275,0.00000380,-0.00001417,0.
 00002111,-0.00001904,-0.00000133,0.00001227,0.00002770,-0.00000589,0.0
 0000850,-0.00910864,-0.03364054,-0.00558563,-0.00001472,0.00002042,0.0
 0002273,-0.00001381,0.00002969,0.00000037,-0.00000285,-0.00002082,0.00
 002790\\\@


 "A LITTLE BIT GOES A LONG WAY"
 R.S. MULLIKEN AS QUOTED BY K. RUEDENBERG
 Job cpu time:       0 days  0 hours 54 minutes 19.4 seconds.
 File lengths (MBytes):  RWF=    106 Int=      0 D2E=      0 Chk=      7 Scr=      1
 Normal termination of Gaussian 09 at Sat May 27 08:45:55 2023.
