
 Working directory              : /scratch/cc//molpro.VmtVrRfSQt/
 Global scratch directory       : /scratch/cc//molpro.VmtVrRfSQt/
 Wavefunction directory         : /home/chimica2/cavallotti/wfu/
 Main file repository           : /scratch/cc//molpro.VmtVrRfSQt/

 id        : polimi

 Nodes     nprocs
 node-6-11    1
 Distribution of processes:   nprocs(total)=    2   nprocs(compute)=    1   nprocs(helper)=    1
 GA implementation: MPI file
 GA implementation (serial work in mppx): MPI file

 Using customized tuning parameters: mindgm=1; mindgv=20; mindgc=4; mindgr=1; noblas=0; minvec=7
 default implementation of scratch files=df  


 Variables initialized (1009), CPU time= 0.01 sec
  memory,         400 ,m
 
 symmetry, nosym; orient, noorient
 angstrom
 geomtyp=xyz
 geometry={
 5
 rotational dynamics
 C, -0.022422, 0.119203, 0.0921136
 H, -1.04031, 0.361691, -0.167942
 H, 0.26556, -0.909381, 0.239087
 H, 0.707987, 0.904644, 0.202141
 H, 0.333733, -1.77628, -1.37007
 }
 
  basis=cc-pvdz
  {multi;closed, 4;occ, 6;wf, 10,1,0,;state,1;maxiter,40}
  if (iterations.ge.0) then
     {rs2,shift=0.2;orbital,IGNORE_ERROR;state,1}
     molpro_energy = energy +   40.192865169999997
  else
     molpro_energy = 10.0
  endif
 Commands initialized (810), CPU time= 0.00 sec, 661 directives.
 Default parameters read. Elapsed time= 0.14 sec

 Checking input...
 Passed
1


                                         ***  PROGRAM SYSTEM MOLPRO  ***
                                       Copyright, TTI GmbH Stuttgart, 2015
                                    Version 2021.2 linked Jun  2 2021 16:00:59


 **********************************************************************************************************************************
 LABEL *                                                                                 
  64 bit serial version                                                                  DATE: 03-Jun-23          TIME: 09:12:00  
 **********************************************************************************************************************************

 SHA1:             1987c3f1b0c3ae76932bc24993909f2d7ae6b1f1
 **********************************************************************************************************************************

 Memory per process:       400 MW
 Total memory per node:    400 MW

 GA preallocation disabled
 GA check disabled

 Variable memory set to 400.0 MW

 SETTING GEOMTYP        =    XYZ
 ZSYMEL=NOSYM
 ZUNIT=ANG

 SETTING BASIS          =    CC-PVDZ


 Recomputing integrals since basis changed


 Using spherical harmonics

 Library entry C      S cc-pVDZ              selected for orbital group  1
 Library entry C      P cc-pVDZ              selected for orbital group  1
 Library entry C      D cc-pVDZ              selected for orbital group  1
 Library entry H      S cc-pVDZ              selected for orbital group  2
 Library entry H      P cc-pVDZ              selected for orbital group  2


 PROGRAM * SEWARD (Integral evaluation for generally contracted gaussian basis sets)     Author: Roland Lindh, 1990

 Geometry written to block  1 of record 700


 Point group  C1  



 ATOMIC COORDINATES

 NR  ATOM    CHARGE       X              Y              Z

   1  C       6.00   -0.042371439    0.225261023    0.174069476
   2  H       1.00   -1.965900985    0.683496932   -0.317364385
   3  H       1.00    0.501835670   -1.718481033    0.451808950
   4  H       1.00    1.337901530    1.709529400    0.381991129
   5  H       1.00    0.630663969   -3.356682721   -2.589057072

 Bond lengths in Bohr (Angstrom)

 1-2  2.037511546  1-3  2.037506754  1-4  2.037507668
     ( 1.078204677)     ( 1.078202141)     ( 1.078202625)

 Bond angles

  2-1-3  119.97226916   2-1-4  120.02084408   3-1-4  120.00660810

 NUCLEAR CHARGE:                   10
 NUMBER OF PRIMITIVE AOS:          55
 NUMBER OF SYMMETRY AOS:           54
 NUMBER OF CONTRACTIONS:           34   (   34A   )
 NUMBER OF INNER CORE ORBITALS:     0   (    0A   )
 NUMBER OF OUTER CORE ORBITALS:     1   (    1A   )
 NUMBER OF VALENCE ORBITALS:        8   (    8A   )


 NUCLEAR REPULSION ENERGY   11.64285065

 Eigenvalues of metric

         1 0.148E-01 0.332E-01 0.352E-01 0.420E-01 0.511E-01 0.536E-01 0.783E-01 0.115E+00


 Contracted 2-electron integrals neglected if value below      1.0D-11
 AO integral compression algorithm  1   Integral accuracy      1.0D-11

     1.311 MB (compressed) written to integral file ( 59.9%)


 NUMBER OF SORTED TWO-ELECTRON INTEGRALS:     177310.     BUFFER LENGTH:  32768
 NUMBER OF SEGMENTS:   1  SEGMENT LENGTH:     177310      RECORD LENGTH: 524288

 Memory used in sort:       0.73 MW

 SORT1 READ      219389. AND WROTE      172169. INTEGRALS IN      1 RECORDS. CPU TIME:     0.00 SEC, REAL TIME:     0.01 SEC
 SORT2 READ      172169. AND WROTE      177310. INTEGRALS IN      5 RECORDS. CPU TIME:     0.02 SEC, REAL TIME:     0.03 SEC

 FILE SIZES:   FILE 1:    31.4 MBYTE,  FILE 4:     4.2 MBYTE,   TOTAL:     35.6 MBYTE

 OPERATOR DM      FOR CENTER  0  COORDINATES:    0.000000    0.000000    0.000000


 **********************************************************************************************************************************
 DATASETS  * FILE   NREC   LENGTH (MB)   RECORD NAMES
              1      19       29.47       500      610      700      900      950      970     1000      129      960     1100   
                                          VAR    BASINP    GEOM    SYMINP    ZMAT    AOBASIS   BASIS     P2S    ABASIS      S 
                                         1400     1410     1200     1210     1080     1600     1650     1300     1700   
                                           T        V       H0       H01     AOSYM     SMH    MOLCAS    ERIS     OPER   

 PROGRAMS   *        TOTAL       INT
 CPU TIMES  *         0.40      0.25
 REAL TIME  *         0.80 SEC
 DISK USED  *        34.26 MB
 **********************************************************************************************************************************

 PROGRAM * MULTI (Direct Multiconfiguration SCF)       Authors: P.J. Knowles, H.-J. Werner (1984)
                                                                D.A. Kreplin, P.J. Knowles, H.-J. Werner (2019)

 Number of closed-shell orbitals:   4 (   4 )
 Number of active  orbitals:        2 (   2 )
 Number of external orbitals:      28 (  28 )

 State symmetry 1

 Number of active electrons:   2    Spin symmetry=Singlet   Space symmetry=1
 Number of states:             1
 Number of CSFs:               3   (4 determinants, 4 intermediate states)

 Orbital guess generated from atomic densities. Full valence occupancy:    9

 Wavefunction dump at record             2140.2

 Convergence thresholds  0.10E-04 (gradient)  0.10E-05 (energy)
 
 Number of orbital rotations:  176  ( 8 closed/active, 112 closed/virtual, 0 active/active, 56 active/virtual )
 Total number of variables:    180
 
  Second-order MCSCF: L-BFGS accelerated
 
 ITER  MIC  NCI  NEG     ENERGY(VAR)    ENERGY(PROJ) ENERGY CHANGE       GRAD(0)  GRAD(ORB)   GRAD(CI)      STEP      TIME
   1    6    5    0    -40.04025973     -40.06218955   -0.02192982    0.14934641 0.00051868 0.00000000  0.17E+00      0.08
   2    9    8    0    -40.06207660     -40.06208573   -0.00000913    0.00357720 0.00000010 0.00000000  0.33E-02      0.19
   3    5    5    0    -40.06208574     -40.06208574   -0.00000000    0.00000271 0.00000000 0.00000000  0.39E-05      0.26

 CONVERGENCE REACHED!  Final gradient:    0.00000000 ( 0.10E-09)
                       Final energy:    -40.06208574
 
 First order charge density matrix for state 1.1 saved on record 2140.2 (density set 1)
 
 Results for state 1.1
 =====================
 !MCSCF STATE 1.1 Energy                       -40.062085737750
 Nuclear energy                                 11.64285065
 Kinetic energy                                 39.97070326
 One electron energy                           -75.93507739
 Two electron energy                            24.23014100
 Virial ratio                                    2.00228624
 
 !MCSCF STATE 1.1 Dipole moment                 -0.02478534     0.10899190     0.12384117
 Dipole moment /Debye                           -0.06299804     0.27702979     0.31477286
 
 No non-zero expectation values
 
 
 Natural orbital dump at molpro section 2140.2 (Orbital set 2)


 **********************************************************************************************************************************
 DATASETS  * FILE   NREC   LENGTH (MB)   RECORD NAMES
              1      20       29.77       500      610      700      900      950      970     1000      129      960     1100   
                                          VAR    BASINP    GEOM    SYMINP    ZMAT    AOBASIS   BASIS     P2S    ABASIS      S 
                                         1400     1410     1200     1210     1080     1600     1650     1300     1700     1380   
                                           T        V       H0       H01     AOSYM     SMH    MOLCAS    ERIS     OPER     JKOP   

              2       4        2.72       700     1000      520     2140   
                                         GEOM     BASIS   MCVARS    MCSCF   

 PROGRAMS   *        TOTAL     MULTI       INT
 CPU TIMES  *         0.64      0.24      0.25
 REAL TIME  *         1.16 SEC
 DISK USED  *        34.26 MB
 **********************************************************************************************************************************


 PROGRAM * RS2 (Multireference RS Perturbation Theory)     Authors: H.-J. Werner (1993), P. Celani (1998)


 Level shift= 0.20

 Convergence thresholds:  THRVAR = 1.00D-08  THRDEN = 1.00D-06

 Number of optimized states: 1  Roots:    1
 Number of reference states: 1  Roots:    1

 Reference symmetry:                   1   Singlet 
 Number of electrons:                 10
 Maximum number of shells:             4
 Maximum number of spin couplings:     5

 Reference space:        3 conf        3 CSFs
 N elec internal:       15 conf       15 CSFs
 N-1 el internal:       23 conf       32 CSFs
 N-2 el internal:       25 conf       52 CSFs

 Number of electrons in valence space:                      8
 Maximum number of open shell orbitals in reference space:  2
 Maximum number of open shell orbitals in internal spaces:  6


 Number of core orbitals:           1 (   1 )
 Number of closed-shell orbitals:   3 (   3 )
 Number of active  orbitals:        2 (   2 )
 Number of external orbitals:      28 (  28 )

 Molecular orbitals read from record     2140.2  Type=MCSCF/NATURAL (state 1.1)

 Integral transformation finished. Total CPU:   0.00 sec, npass=  1  Memory used:   0.11 MW


 Number of p-space configurations:   3

 Reference wavefunction optimized for reference space (refopt=1)

 State     Reference Energy 
     1       -40.06208574

 Number of blocks in overlap matrix:     2   Smallest eigenvalue:  0.10D+01
 Number of N-2 electron functions:      22
 Number of N-1 electron functions:      32

 Number of internal configurations:                   15
 Number of singly external configurations:           896
 Number of doubly external configurations:          8680
 Total number of contracted configurations:         9591
 Total number of uncontracted configurations:      21351

 Weight factors for SA-density in H0:    1.000000

 FIMAX=  0.28D-01  FXMAX=  0.45D-13  DIAG=  F  T  NOREF=1  NOINT=0  IHPPD=2

 Nuclear energy:                      11.64285065
 Core energy:                        -35.74064613
 Zeroth-order valence energy:         -4.49333389
 Zeroth-order total energy:          -28.59112937
 First-order energy:                 -11.47095637

 Using uncontracted singles

 Diagonal Coupling coefficients finished.               Storage:     883 words, CPU-Time:      0.00 seconds.
 Energy denominators for pairs finished in 0 passes.    Storage:    2295 words, CPU-time:      0.00 seconds.

 A level shift of 0.20 is applied.

  ITER. STATE  ROOT     SQ.NORM     CORR.ENERGY   TOTAL ENERGY   ENERGY CHANGE       DEN1      VAR(S)    VAR(P)      TIME
    1     1     1     1.00698658    -0.00139732   -40.06348305    -0.00139732    -0.12808390  0.70D-02  0.36D-01     0.02
    2     1     1     1.04269733    -0.13677856   -40.19886430    -0.13538125    -0.00003204  0.23D-04  0.16D-04     0.02
    3     1     1     1.04273184    -0.13685493   -40.19894066    -0.00007636    -0.00004678  0.23D-06  0.51D-07     0.02
    4     1     1     1.04275176    -0.13685935   -40.19894509    -0.00000442    -0.00000103  0.19D-08  0.99D-09     0.02
    5     1     1     1.04275236    -0.13685947   -40.19894521    -0.00000012    -0.00000032  0.33D-10  0.73D-11     0.03
    6     1     1     1.04275249    -0.13685950   -40.19894523    -0.00000003    -0.00000002  0.44D-12  0.16D-12     0.03

 Energies without level shift correction:

    6     1     1     1.04275249    -0.12830900   -40.19039474

 Energy contributions for state 1.1:
 ===================================

            Energy contr.      SQ.Norm of FOWF
 Space I     -0.00021341          0.00013264
 Space S     -0.01448428          0.00711701
 Space P     -0.11361130          0.03550284


 =====================================
 Analysis of CPU times by interactions
 =====================================

       I      S      P

 I  33.3%
 S   0.0%   0.0%
 P   0.0%   0.0%   0.0%

 Initialization:  33.3%
 Other:           33.3%

 Total CPU:        0.0 seconds
 =====================================



 gnormi=  1.00013264  gnorms=  0.00711701  gnormp=  0.03550284  gnorm=  1.04275249
 ecorri= -0.00021341  ecorrs= -0.01448428  ecorrp= -0.11361130  ecorr= -0.13685950

 Reference coefficients greater than 0.0500000
 =============================================
 22220           0.8525713
 22202          -0.5226109


 RESULTS FOR STATE 1.1
 =====================

 Coefficient of reference function:   C(0) = 1.00000000 (fixed)   1.00000000 (relaxed)

 Energy contributions of configuration classes

 CLASS          SQ.NORM        ECORR1        ECORR2
 +++++++++++++++++++++++++++++++++++++++++++++++++++
 Internals    0.00013264   -0.00021341    0.13640422
 Singles      0.00711701   -0.01448428   -0.03089903
 Pairs        0.03550284   -0.11361130   -0.24236469
 Total        1.04275249   -0.12830899   -0.13685950
 +++++++++++++++++++++++++++++++++++++++++++++++++++


 Reference energy                     -40.06208574
 Nuclear energy                        11.64285065
 Kinetic energy                        40.06817816
 One electron energy                  -75.87618527
 Two electron energy                   24.03438939
 Virial quotient                       -1.00326361
 Correlation energy                    -0.13685950
 !RSPT2 STATE 1.1 Energy              -40.198945233731

 Properties without orbital relaxation:

 !RSPT2 STATE 1.1 Dipole moment        -0.02550241     0.11048053     0.12666191
 Dipole moment /Debye                  -0.06482065     0.28081350     0.32194246


 **********************************************************************************************************************************
 DATASETS  * FILE   NREC   LENGTH (MB)   RECORD NAMES
              1      20       29.77       500      610      700      900      950      970     1000      129      960     1100   
                                          VAR    BASINP    GEOM    SYMINP    ZMAT    AOBASIS   BASIS     P2S    ABASIS      S 
                                         1400     1410     1200     1210     1080     1600     1650     1300     1700     1380   
                                           T        V       H0       H01     AOSYM     SMH    MOLCAS    ERIS     OPER     JKOP   

              2       4        2.72       700     1000      520     2140   
                                         GEOM     BASIS   MCVARS    MCSCF   

 PROGRAMS   *        TOTAL       RS2     MULTI       INT
 CPU TIMES  *         0.71      0.07      0.24      0.25
 REAL TIME  *         1.30 SEC
 DISK USED  *        34.26 MB
 **********************************************************************************************************************************
 SETTING MOLPRO_ENERGY  =        -0.00608006  AU                              

 RS2/cc-pVDZ energy=    -40.198945233731

             RS2           MULTI
    -40.19894523    -40.06208574
 **********************************************************************************************************************************
 Molpro calculation terminated
