 Entering Gaussian System, Link 0=g09
 Input=geom.com
 Output=geom.log
 Initial command:
 /programs/64bit/g09/g09-gfortran/bin/l1.exe /data/scratch/Gau-17623.inp -scrdir=/data/scratch/
 Entering Link 1 = /programs/64bit/g09/g09-gfortran/bin/l1.exe PID=     17624.
  
 Copyright (c) 1988,1990,1992,1993,1995,1998,2003,2009, Gaussian, Inc.
                  All Rights Reserved.
  
 This is part of the Gaussian(R) 09 program.  It is based on
 the Gaussian(R) 03 system (copyright 2003, Gaussian, Inc.),
 the Gaussian(R) 98 system (copyright 1998, Gaussian, Inc.),
 the Gaussian(R) 94 system (copyright 1995, Gaussian, Inc.),
 the Gaussian 92(TM) system (copyright 1992, Gaussian, Inc.),
 the Gaussian 90(TM) system (copyright 1990, Gaussian, Inc.),
 the Gaussian 88(TM) system (copyright 1988, Gaussian, Inc.),
 the Gaussian 86(TM) system (copyright 1986, Carnegie Mellon
 University), and the Gaussian 82(TM) system (copyright 1983,
 Carnegie Mellon University). Gaussian is a federally registered
 trademark of Gaussian, Inc.
  
 This software contains proprietary and confidential information,
 including trade secrets, belonging to Gaussian, Inc.
  
 This software is provided under written license and may be
 used, copied, transmitted, or stored only in accord with that
 written license.
  
 The following legend is applicable only to US Government
 contracts under FAR:
  
                    RESTRICTED RIGHTS LEGEND
  
 Use, reproduction and disclosure by the US Government is
 subject to restrictions as set forth in subparagraphs (a)
 and (c) of the Commercial Computer Software - Restricted
 Rights clause in FAR 52.227-19.
  
 Gaussian, Inc.
 340 Quinnipiac St., Bldg. 40, Wallingford CT 06492
  
  
 ---------------------------------------------------------------
 Warning -- This program may not be used in any manner that
 competes with the business of Gaussian, Inc. or will provide
 assistance to any competitor of Gaussian, Inc.  The licensee
 of this program is prohibited from giving any competitor of
 Gaussian, Inc. access to this program.  By using this program,
 the user acknowledges that Gaussian, Inc. is engaged in the
 business of creating and licensing software in the field of
 computational chemistry and represents and warrants to the
 licensee that it is not a competitor of Gaussian, Inc. and that
 it will not use this program in any manner prohibited above.
 ---------------------------------------------------------------
  

 Cite this work as:
 Gaussian 09, Revision A.02,
 M. J. Frisch, G. W. Trucks, H. B. Schlegel, G. E. Scuseria, 
 M. A. Robb, J. R. Cheeseman, G. Scalmani, V. Barone, B. Mennucci, 
 G. A. Petersson, H. Nakatsuji, M. Caricato, X. Li, H. P. Hratchian, 
 A. F. Izmaylov, J. Bloino, G. Zheng, J. L. Sonnenberg, M. Hada, 
 M. Ehara, K. Toyota, R. Fukuda, J. Hasegawa, M. Ishida, T. Nakajima, 
 Y. Honda, O. Kitao, H. Nakai, T. Vreven, J. A. Montgomery, Jr., 
 J. E. Peralta, F. Ogliaro, M. Bearpark, J. J. Heyd, E. Brothers, 
 K. N. Kudin, V. N. Staroverov, R. Kobayashi, J. Normand, 
 K. Raghavachari, A. Rendell, J. C. Burant, S. S. Iyengar, J. Tomasi, 
 M. Cossi, N. Rega, J. M. Millam, M. Klene, J. E. Knox, J. B. Cross, 
 V. Bakken, C. Adamo, J. Jaramillo, R. Gomperts, R. E. Stratmann, 
 O. Yazyev, A. J. Austin, R. Cammi, C. Pomelli, J. W. Ochterski, 
 R. L. Martin, K. Morokuma, V. G. Zakrzewski, G. A. Voth, 
 P. Salvador, J. J. Dannenberg, S. Dapprich, A. D. Daniels, 
 O. Farkas, J. B. Foresman, J. V. Ortiz, J. Cioslowski, 
 and D. J. Fox, Gaussian, Inc., Wallingford CT, 2009.
 
 ******************************************
 Gaussian 09:  EM64L-G09RevA.02 11-Jun-2009
                 6-Apr-2017 
 ******************************************
 %mem=200MW
 %chk=tmp
 %NProcShared= 12
 Will use up to   12 processors via shared memory.
 ----------------------------------------------------------------------
 # b3lyp/6-31+g(d,p) opt=(ts,calcfc,noeig,intern,maxcyc=50) # int=ultra
 fine nosym
 ----------------------------------------------------------------------
 1/5=1,6=50,10=4,11=1,14=-1,18=40,26=3,38=1/1,3;
 2/12=2,15=1,17=6,18=5,29=3,40=1/2;
 3/5=1,6=6,7=111,11=2,16=1,25=1,30=1,71=2,74=-5,75=-5/1,2,3;
 4//1;
 5/5=2,38=5/2;
 8/6=4,10=90,11=11/1;
 11/6=1,8=1,9=11,15=111,16=1,31=1/1,2,10;
 10/6=1,7=6,13=1,31=1/2;
 6/7=2,8=2,9=2,10=2,28=1/1;
 7/10=1,18=20,25=1,30=1/1,2,3,16;
 1/5=1,6=50,10=4,11=1,14=-1,18=40/3(2);
 2/15=1,29=3/2;
 99//99;
 2/15=1,29=3/2;
 3/5=1,6=6,7=111,11=2,16=1,25=1,30=1,71=1,74=-5,75=-5/1,2,3;
 4/5=5,16=3/1;
 5/5=2,38=5/2;
 7/30=1/1,2,3,16;
 1/5=1,6=50,11=1,14=-1,18=40/3(-5);
 2/15=1,29=3/2;
 6/7=2,8=2,9=2,10=2,19=2,28=1/1;
 99/9=1/99;
 ------
 geom 1
 ------
 Symbolic Z-matrix:
 Charge =  0 Multiplicity = 2
 c1
 c2                   c1   rcc1
 h3                   c1   rch1     c2   ahcc1
 h4                   c1   rch2     c2   ahcc2    h3   b1       0
 h5                   c2   rch3     c1   ahcc3    h3   b2       0
 h6                   c2   rch4     c1   ahcc4    h5   b3       0
 H1                   2    rts      1    aabs1    3    babs1    0
       Variables:
  RCC1                  1.3402                   
  RCH1                  1.0866                   
  RCH2                  1.0866                   
  RCH3                  1.0863                   
  RCH4                  1.0863                   
  AHCC1               121.6511                   
  AHCC2               121.6512                   
  AHCC3               121.6485                   
  AHCC4               121.6484                   
  B1                  181.1334                   
  B2                   -2.8346                   
  B3                  184.5351                   
  AABS1               106.9256                   
  BABS1                89.4301                   
  RTS                   2.291                    
 

 GradGradGradGradGradGradGradGradGradGradGradGradGradGradGradGradGradGrad
 Berny optimization.
 Initialization pass.
                       ----------------------------
                       !    Initial Parameters    !
                       ! (Angstroms and Degrees)  !
 ----------------------                            ----------------------
 !      Name          Value   Derivative information (Atomic Units)     !
 ------------------------------------------------------------------------
 !      RCC1         1.3402   calculate D2E/DX2 analytically            !
 !      RCH1         1.0866   calculate D2E/DX2 analytically            !
 !      RCH2         1.0866   calculate D2E/DX2 analytically            !
 !      RCH3         1.0863   calculate D2E/DX2 analytically            !
 !      RCH4         1.0863   calculate D2E/DX2 analytically            !
 !      AHCC1      121.6511   calculate D2E/DX2 analytically            !
 !      AHCC2      121.6512   calculate D2E/DX2 analytically            !
 !      AHCC3      121.6485   calculate D2E/DX2 analytically            !
 !      AHCC4      121.6484   calculate D2E/DX2 analytically            !
 !       B1        181.1334   calculate D2E/DX2 analytically            !
 !       B2         -2.8346   calculate D2E/DX2 analytically            !
 !       B3        184.5351   calculate D2E/DX2 analytically            !
 !      AABS1      106.9256   calculate D2E/DX2 analytically            !
 !      BABS1       89.4301   calculate D2E/DX2 analytically            !
 !       RTS         2.291    calculate D2E/DX2 analytically            !
 ------------------------------------------------------------------------
 Trust Radius=3.00D-01 FncErr=1.00D-07 GrdErr=1.00D-06
 Number of steps in this run=  50 maximum allowed number of steps= 100.
 Search for a saddle point of order  1.
 GradGradGradGradGradGradGradGradGradGradGradGradGradGradGradGradGradGrad

 ---------------------------------------------------------------------------------------------------
                            Z-MATRIX (ANGSTROMS AND DEGREES)
   CD    Cent   Atom    N1       Length/X        N2       Alpha/Y        N3        Beta/Z          J
 ---------------------------------------------------------------------------------------------------
      1      1  C 
      2      2  C        1   1.340200(     1)
      3      3  H        1   1.086600(     2)      2  121.651(     7)
      4      4  H        1   1.086600(     3)      2  121.651(     8)      3  181.133(    12)      0
      5      5  H        2   1.086300(     4)      1  121.649(     9)      3   -2.835(    13)      0
      6      6  H        2   1.086300(     5)      1  121.648(    10)      5  184.535(    14)      0
      7      7  H        2   2.291000(     6)      1  106.926(    11)      3   89.430(    15)      0
 ---------------------------------------------------------------------------------------------------
                         Z-Matrix orientation:                         
 ---------------------------------------------------------------------
 Center     Atomic      Atomic             Coordinates (Angstroms)
 Number     Number       Type             X           Y           Z
 ---------------------------------------------------------------------
      1          6           0        0.000000    0.000000    0.000000
      2          6           0        0.000000    0.000000    1.340200
      3          1           0        0.924978    0.000000   -0.570188
      4          1           0       -0.924796    0.018296   -0.570190
      5          1           0        0.923617   -0.045732    1.910189
      6          1           0       -0.924343   -0.027442    1.910187
      7          1           0        0.021800    2.191654    2.007178
 ---------------------------------------------------------------------
                    Distance matrix (angstroms):
                    1          2          3          4          5
     1  C    0.000000
     2  C    1.340200   0.000000
     3  H    1.086600   2.122538   0.000000
     4  H    1.086600   2.122539   1.849865   0.000000
     5  H    2.122259   1.086300   2.480799   3.094028   0.000000
     6  H    2.122258   1.086300   3.094027   2.480799   1.848050
     7  H    2.971967   2.291000   3.501699   3.501764   2.414244
                    6          7
     6  H    0.000000
     7  H    2.414328   0.000000
 Symmetry turned off by external request.
 Stoichiometry    C2H5(2)
 Framework group  C1[X(C2H5)]
 Deg. of freedom    15
 Full point group                 C1      NOp   1
 Rotational constants (GHZ):     66.3734595     22.2852997     21.5964109
 Standard basis: 6-31+G(d,p) (6D, 7F)
 Integral buffers will be    131072 words long.
 Raffenetti 2 integral format.
 Two-electron integral symmetry is turned off.
    63 basis functions,    99 primitive gaussians,    63 cartesian basis functions
     9 alpha electrons        8 beta electrons
       nuclear repulsion energy        36.4240955234 Hartrees.
 NAtoms=    7 NActive=    7 NUniq=    7 SFac= 7.50D-01 NAtFMM=   80 NAOKFM=F Big=F
 One-electron integrals computed using PRISM.
 NBasis=    63 RedAO= T  NBF=    63
 NBsUse=    63 1.00D-06 NBFU=    63
 Harris functional with IExCor=  402 diagonalized for initial guess.
 ExpMin= 4.38D-02 ExpMax= 3.05D+03 ExpMxC= 4.57D+02 IAcc=3 IRadAn=         5 AccDes= 0.00D+00
 HarFok:  IExCor=  402 AccDes= 0.00D+00 IRadAn=         5 IDoV= 1
 ScaDFX=  1.000000  1.000000  1.000000  1.000000
 FoFCou: FMM=F IPFlag=           0 FMFlag=      100000 FMFlg1=           0
         NFxFlg=           0 DoJE=T BraDBF=F KetDBF=T FulRan=T
         Omega=  0.000000  0.000000  1.000000  0.000000  0.000000 ICntrl=     500 IOpCl=  0
         NMat0=    1 NMatS0=    1 NMatT0=    0 NMatD0=    1 NMtDS0=    0 NMtDT0=    0
         I1Cent=           4 NGrid=           0.
 Symmetry not used in FoFCou.
 Initial guess <Sx>= 0.0000 <Sy>= 0.0000 <Sz>= 0.5000 <S**2>= 0.7500 S= 0.5000
 Requested convergence on RMS density matrix=1.00D-08 within 128 cycles.
 Requested convergence on MAX density matrix=1.00D-06.
 Requested convergence on             energy=1.00D-06.
 No special actions if energy rises.
 Keep R1 and R2 ints in memory in canonical form, NReq=5141667.
 SCF Done:  E(UB3LYP) =  -79.1000524760     A.U. after   14 cycles
             Convg  =    0.1583D-08             -V/T =  2.0108
 <Sx>= 0.0000 <Sy>= 0.0000 <Sz>= 0.5000 <S**2>= 0.7584 S= 0.5042
 <L.S>=  0.00000000000    
 Annihilation of the first spin contaminant:
 S**2 before annihilation     0.7584,   after     0.7500
 Range of M.O.s used for correlation:     1    63
 NBasis=    63 NAE=     9 NBE=     8 NFC=     0 NFV=     0
 NROrb=     63 NOA=     9 NOB=     8 NVA=    54 NVB=    55

 **** Warning!!: The largest alpha MO coefficient is  0.35962433D+02


 **** Warning!!: The largest beta MO coefficient is  0.35768938D+02

 Symmetrizing basis deriv contribution to polar:
 IMax=3 JMax=2 DiffMx= 0.00D+00
 G2DrvN: will do     8 centers at a time, making    1 passes doing MaxLOS=2.
 Calling FoFCou, ICntrl=  3107 FMM=F I1Cent=   0 AccDes= 0.00D+00.
 FoFDir/FoFCou used for L=0 through L=2.
 End of G2Drv Frequency-dependent properties file   721 does not exist.
 End of G2Drv Frequency-dependent properties file   722 does not exist.
          IDoAtm=1111111
          Differentiating once with respect to nuclear coordinates.
          Keep R1 and R2 ints in memory in canonical form, NReq=4889227.
          There are    24 degrees of freedom in the 1st order CPHF.  IDoFFX=5.
     18 vectors produced by pass  0 Test12= 3.86D-11 4.17D-07 XBig12= 1.87D-01 1.97D-01.
 AX will form    18 AO Fock derivatives at one time.
     18 vectors produced by pass  1 Test12= 3.86D-11 4.17D-07 XBig12= 6.30D-02 1.09D-01.
     18 vectors produced by pass  2 Test12= 3.86D-11 4.17D-07 XBig12= 5.31D-04 8.14D-03.
     18 vectors produced by pass  3 Test12= 3.86D-11 4.17D-07 XBig12= 3.39D-06 6.61D-04.
     11 vectors produced by pass  4 Test12= 3.86D-11 4.17D-07 XBig12= 1.74D-08 4.26D-05.
      4 vectors produced by pass  5 Test12= 3.86D-11 4.17D-07 XBig12= 1.02D-10 2.48D-06.
 Inverted reduced A of dimension    87 with in-core refinement.
 End of Minotr Frequency-dependent properties file   721 does not exist.
 End of Minotr Frequency-dependent properties file   722 does not exist.

 **********************************************************************

            Population analysis using the SCF density.

 **********************************************************************

 Alpha  occ. eigenvalues --  -10.20265 -10.20143  -0.77110  -0.59183  -0.47737
 Alpha  occ. eigenvalues --   -0.43048  -0.36589  -0.32434  -0.25352
 Alpha virt. eigenvalues --   -0.00870   0.02703   0.03554   0.04357   0.07846
 Alpha virt. eigenvalues --    0.08413   0.08870   0.12007   0.15284   0.18858
 Alpha virt. eigenvalues --    0.19901   0.27277   0.34126   0.34373   0.56921
 Alpha virt. eigenvalues --    0.64255   0.65962   0.70380   0.74905   0.80428
 Alpha virt. eigenvalues --    0.88826   0.89834   0.90987   0.97604   1.02223
 Alpha virt. eigenvalues --    1.14660   1.17679   1.37156   1.37482   1.51275
 Alpha virt. eigenvalues --    1.83293   1.90441   1.94952   1.96412   2.00362
 Alpha virt. eigenvalues --    2.02304   2.05569   2.05946   2.21534   2.23857
 Alpha virt. eigenvalues --    2.38464   2.43588   2.52484   2.60554   2.66073
 Alpha virt. eigenvalues --    2.70913   2.75308   3.01763   3.19089   3.33097
 Alpha virt. eigenvalues --    3.48254   3.75300   4.22892   4.51812
  Beta  occ. eigenvalues --  -10.20326 -10.19902  -0.76805  -0.58945  -0.47645
  Beta  occ. eigenvalues --   -0.42865  -0.36517  -0.28556
  Beta virt. eigenvalues --   -0.08798  -0.00142   0.02810   0.03935   0.04381
  Beta virt. eigenvalues --    0.08030   0.08440   0.10036   0.12352   0.15263
  Beta virt. eigenvalues --    0.18871   0.20681   0.27957   0.34174   0.34453
  Beta virt. eigenvalues --    0.56980   0.64277   0.66466   0.71444   0.75118
  Beta virt. eigenvalues --    0.80846   0.88823   0.91069   0.95295   1.01226
  Beta virt. eigenvalues --    1.07208   1.15219   1.17754   1.37570   1.37775
  Beta virt. eigenvalues --    1.51481   1.83863   1.90764   1.96890   2.01586
  Beta virt. eigenvalues --    2.04496   2.08623   2.15465   2.16183   2.21639
  Beta virt. eigenvalues --    2.29464   2.41092   2.43728   2.53247   2.60987
  Beta virt. eigenvalues --    2.66275   2.70969   2.75442   3.01844   3.19180
  Beta virt. eigenvalues --    3.33159   3.48406   3.75391   4.23142   4.52020
          Condensed to atoms (all electrons):
              1          2          3          4          5          6
     1  C    4.868385   0.639763   0.391528   0.391528  -0.032015  -0.032015
     2  C    0.639763   4.969764  -0.031565  -0.031566   0.388786   0.388787
     3  H    0.391528  -0.031565   0.540209  -0.035458  -0.007542   0.004326
     4  H    0.391528  -0.031566  -0.035458   0.540209   0.004326  -0.007542
     5  H   -0.032015   0.388786  -0.007542   0.004326   0.535670  -0.034012
     6  H   -0.032015   0.388787   0.004326  -0.007542  -0.034012   0.535669
     7  H   -0.018162   0.070166  -0.000302  -0.000302  -0.007163  -0.007161
              7
     1  C   -0.018162
     2  C    0.070166
     3  H   -0.000302
     4  H   -0.000302
     5  H   -0.007163
     6  H   -0.007161
     7  H    0.941276
 Mulliken atomic charges:
              1
     1  C   -0.209013
     2  C   -0.394136
     3  H    0.138804
     4  H    0.138804
     5  H    0.151948
     6  H    0.151947
     7  H    0.021647
 Sum of Mulliken atomic charges =  -0.00000
 Mulliken charges with hydrogens summed into heavy atoms:
              1
     1  C    0.068594
     2  C   -0.068594
 Sum of Mulliken charges with hydrogens summed into heavy atoms =  -0.00000
          Atomic-Atomic Spin Densities.
              1          2          3          4          5          6
     1  C    0.216114   0.016837   0.000871   0.000871  -0.000191  -0.000192
     2  C    0.016837  -0.140047  -0.002128  -0.002129   0.000851   0.000851
     3  H    0.000871  -0.002128  -0.008086   0.000477   0.000284   0.000045
     4  H    0.000871  -0.002129   0.000477  -0.008086   0.000045   0.000284
     5  H   -0.000191   0.000851   0.000284   0.000045   0.009868   0.001633
     6  H   -0.000192   0.000851   0.000045   0.000284   0.001633   0.009866
     7  H   -0.019328   0.023016  -0.000333  -0.000333  -0.007241  -0.007239
              7
     1  C   -0.019328
     2  C    0.023016
     3  H   -0.000333
     4  H   -0.000333
     5  H   -0.007241
     6  H   -0.007239
     7  H    0.906468
 Mulliken atomic spin densities:
              1
     1  C    0.214981
     2  C   -0.102749
     3  H   -0.008870
     4  H   -0.008870
     5  H    0.005249
     6  H    0.005249
     7  H    0.895011
 Sum of Mulliken atomic spin densities =   1.00000
 APT atomic charges:
              1
     1  C   -0.748878
     2  C   -0.785351
     3  H    0.318476
     4  H    0.318476
     5  H    0.452469
     6  H    0.452464
     7  H   -0.007657
 Sum of APT charges=  -0.00000
 APT Atomic charges with hydrogens summed into heavy atoms:
              1
     1  C   -0.111926
     2  C    0.111926
     3  H    0.000000
     4  H    0.000000
     5  H    0.000000
     6  H    0.000000
     7  H    0.000000
 Sum of APT charges=  -0.00000
 Electronic spatial extent (au):  <R**2>=            144.7754
 Charge=             -0.0000 electrons
 Dipole moment (field-independent basis, Debye):
    X=             -0.0033    Y=             -0.3345    Z=             -0.1938  Tot=              0.3866
 Quadrupole moment (field-independent basis, Debye-Ang):
   XX=            -13.7627   YY=            -17.9002   ZZ=            -14.2677
   XY=             -0.0410   XZ=             -0.0082   YZ=             -0.8288
 Traceless Quadrupole moment (field-independent basis, Debye-Ang):
   XX=              1.5475   YY=             -2.5900   ZZ=              1.0425
   XY=             -0.0410   XZ=             -0.0082   YZ=             -0.8288
 Octapole moment (field-independent basis, Debye-Ang**2):
  XXX=             -0.0937  YYY=            -10.3658  ZZZ=            -34.6050  XYY=             -0.0406
  XXY=             -3.1402  XXZ=            -11.1297  XZZ=             -0.0475  YZZ=             -4.7780
  YYZ=            -14.8343  XYZ=             -0.0367
 Hexadecapole moment (field-independent basis, Debye-Ang**3):
 XXXX=            -30.0792 YYYY=            -65.7266 ZZZZ=           -143.4771 XXXY=             -0.1894
 XXXZ=             -0.1907 YYYX=             -0.1655 YYYZ=            -21.0873 ZZZX=             -0.2199
 ZZZY=            -22.1200 XXYY=            -16.3710 XXZZ=            -25.9451 YYZZ=            -39.5923
 XXYZ=             -6.3927 YYXZ=             -0.0826 ZZXY=             -0.1355
 N-N= 3.642409552338D+01 E-N=-3.802406709819D+02  KE= 1.170588928828D+02
  Exact polarizability:   0.000   0.000   0.000   0.000   0.000   0.000
 Approx polarizability:  27.256   0.058  33.049   0.074   7.488  56.967
                          Isotropic Fermi Contact Couplings
        Atom                 a.u.       MegaHertz       Gauss      10(-4) cm-1
     1  C(13)              0.01768      19.87700       7.09261       6.63025
     2  C(13)              0.00962      10.82017       3.86091       3.60922
     3  H(1)              -0.00263     -11.76113      -4.19666      -3.92309
     4  H(1)              -0.00263     -11.76105      -4.19664      -3.92307
     5  H(1)               0.00336      15.02468       5.36118       5.01169
     6  H(1)               0.00336      15.02098       5.35986       5.01046
     7  H(1)               0.28550    1276.14345     455.35970     425.67563
 --------------------------------------------------------
       Center         ----  Spin Dipole Couplings  ----
                      3XX-RR        3YY-RR        3ZZ-RR
 --------------------------------------------------------
     1   Atom       -0.099577      0.197430     -0.097853
     2   Atom        0.020981     -0.061554      0.040573
     3   Atom        0.004293      0.000185     -0.004477
     4   Atom        0.004363      0.000115     -0.004478
     5   Atom       -0.006187      0.009652     -0.003465
     6   Atom       -0.005800      0.009265     -0.003465
     7   Atom        0.003773     -0.006590      0.002816
 --------------------------------------------------------
                        XY            XZ            YZ
 --------------------------------------------------------
     1   Atom        0.002939      0.000026      0.002538
     2   Atom       -0.000813      0.000150      0.014948
     3   Atom       -0.001809     -0.012584      0.003973
     4   Atom        0.001726      0.012661      0.003723
     5   Atom       -0.009577     -0.001217      0.000419
     6   Atom        0.009884      0.001225      0.000395
     7   Atom       -0.000103     -0.000031     -0.003096
 --------------------------------------------------------


 ---------------------------------------------------------------------------------
              Anisotropic Spin Dipole Couplings in Principal Axis System
 ---------------------------------------------------------------------------------

       Atom             a.u.   MegaHertz   Gauss  10(-4) cm-1        Axes

              Baa    -0.0996   -13.366    -4.769    -4.458  1.0000 -0.0099 -0.0002
     1 C(13)  Bbb    -0.0979   -13.134    -4.686    -4.381  0.0001 -0.0086  1.0000
              Bcc     0.1975    26.500     9.456     8.839  0.0099  0.9999  0.0086
 
              Baa    -0.0637    -8.549    -3.050    -2.852  0.0098  0.9898 -0.1419
     2 C(13)  Bbb     0.0210     2.817     1.005     0.939  1.0000 -0.0099 -0.0001
              Bcc     0.0427     5.732     2.045     1.912  0.0015  0.1419  0.9899
 
              Baa    -0.0138    -7.350    -2.623    -2.452  0.5532 -0.1610  0.8174
     3 H(1)   Bbb    -0.0005    -0.258    -0.092    -0.086  0.3069  0.9515 -0.0203
              Bcc     0.0143     7.608     2.715     2.538  0.7745 -0.2621 -0.5757
 
              Baa    -0.0138    -7.351    -2.623    -2.452 -0.5562 -0.1499  0.8174
     4 H(1)   Bbb    -0.0005    -0.258    -0.092    -0.086 -0.2880  0.9574 -0.0203
              Bcc     0.0143     7.608     2.715     2.538  0.7795  0.2467  0.5757
 
              Baa    -0.0108    -5.768    -2.058    -1.924  0.8996  0.4185  0.1251
     5 H(1)   Bbb    -0.0034    -1.811    -0.646    -0.604 -0.0917 -0.0992  0.9908
              Bcc     0.0142     7.580     2.705     2.528 -0.4270  0.9028  0.0508
 
              Baa    -0.0108    -5.768    -2.058    -1.924  0.8911 -0.4362 -0.1252
     6 H(1)   Bbb    -0.0034    -1.811    -0.646    -0.604  0.0898 -0.1010  0.9908
              Bcc     0.0142     7.579     2.704     2.528  0.4449  0.8941  0.0508
 
              Baa    -0.0075    -4.011    -1.431    -1.338  0.0095  0.9579  0.2870
     7 H(1)   Bbb     0.0037     1.998     0.713     0.666 -0.0011 -0.2870  0.9579
              Bcc     0.0038     2.014     0.719     0.672  1.0000 -0.0094 -0.0017
 

 ---------------------------------------------------------------------------------

 Calling FoFJK, ICntrl=    100147 FMM=F ISym2X=0 I1Cent= 0 IOpClX= 1 NMat=1 NMatS=1 NMatT=0.
 -------------------------------------------------------------------
 Center     Atomic                   Forces (Hartrees/Bohr)
 Number     Number              X              Y              Z
 -------------------------------------------------------------------
      1        6           0.000000111   -0.000007133    0.000019009
      2        6           0.000000330    0.000021371   -0.000021599
      3        1          -0.000002246    0.000000215    0.000002803
      4        1           0.000002257    0.000000276    0.000002770
      5        1           0.000000212   -0.000005495   -0.000001501
      6        1          -0.000000355   -0.000005291   -0.000001372
      7        1          -0.000000309   -0.000003943   -0.000000110
 -------------------------------------------------------------------
 Cartesian Forces:  Max     0.000021599 RMS     0.000008279
 -----------------------------------------------------------------------------------------------
                       Internal Coordinate Forces (Hartree/Bohr or radian)
  Cent   Atom   N1       Length/X         N2         Alpha/Y        N3         Beta/Z          J
 -----------------------------------------------------------------------------------------------
      1  C 
      2  C        1  -0.000025(     1)
      3  H        1  -0.000003(     2)      2  -0.000002(     7)
      4  H        1  -0.000003(     3)      2  -0.000002(     8)      3   0.000001(    12)     0
      5  H        2  -0.000000(     4)      1  -0.000003(     9)      3  -0.000000(    13)     0
      6  H        2  -0.000000(     5)      1  -0.000003(    10)      5   0.000009(    14)     0
      7  H        2  -0.000004(     6)      1   0.000005(    11)      3   0.000001(    15)     0
 -----------------------------------------------------------------------------------------------
 Internal  Forces:  Max     0.000024581 RMS     0.000007209

 GradGradGradGradGradGradGradGradGradGradGradGradGradGradGradGradGradGrad
 Berny optimization.
 Search for a saddle point.
 Step number   1 out of a maximum of   50
 All quantities printed in internal units (Hartrees-Bohrs-Radians)
 Swaping is turned off.
 Second derivative matrix not updated -- analytic derivatives used.
 The second derivative matrix:
                         RCC1      RCH1      RCH2      RCH3      RCH4
           RCC1         0.60180
           RCH1         0.00646   0.36013
           RCH2         0.00646   0.00191   0.36013
           RCH3         0.00672   0.00068  -0.00056   0.36084
           RCH4         0.00672  -0.00056   0.00068   0.00188   0.36085
           AHCC1        0.03206  -0.00201  -0.01805  -0.00228   0.00527
           AHCC2        0.03206  -0.01805  -0.00201   0.00527  -0.00228
           AHCC3        0.03181  -0.00228   0.00530  -0.00171  -0.01803
           AHCC4        0.03181   0.00530  -0.00228  -0.01803  -0.00171
           B1          -0.00069  -0.00034  -0.00022  -0.00011  -0.00008
           B2           0.00000  -0.00015   0.00015   0.00051  -0.00051
           B3          -0.00428  -0.00016  -0.00002  -0.00066  -0.00117
           AABS1        0.00383  -0.00019  -0.00019   0.00003   0.00003
           BABS1       -0.00000   0.00002  -0.00002  -0.00054   0.00054
           RTS          0.01217  -0.00021  -0.00021  -0.00032  -0.00032
                         AHCC1     AHCC2     AHCC3     AHCC4      B1
           AHCC1        0.22668
           AHCC2        0.10033   0.22668
           AHCC3       -0.00305   0.01621   0.22627
           AHCC4        0.01621  -0.00305   0.09925   0.22628
           B1           0.00140   0.00090   0.00115  -0.00107   0.07016
           B2           0.00044  -0.00044   0.00418  -0.00417   0.06093
           B3           0.00018  -0.00026   0.00719   0.00302   0.02416
           AABS1       -0.00009  -0.00009   0.00128   0.00127   0.00083
           BABS1        0.00004  -0.00004  -0.00195   0.00195  -0.00043
           RTS          0.00002   0.00002  -0.00007  -0.00007   0.00039
                          B2        B3       AABS1     BABS1      RTS
           B2           0.14281
           B3           0.07141   0.07847
           AABS1        0.00000  -0.00569   0.02546
           BABS1       -0.02096  -0.01048   0.00000   0.02012
           RTS         -0.00000   0.00595  -0.00163   0.00000  -0.00160
     Eigenvalues ---   -0.00272   0.01294   0.02278   0.03038   0.05186
     Eigenvalues ---    0.10691   0.14310   0.21997   0.30418   0.31665
     Eigenvalues ---    0.35966   0.36047   0.37044   0.37133   0.61712
 Eigenvectors required to have negative eigenvalues:
                          RTS       B3        B2       AABS1      B1
   1                    0.98743  -0.12931   0.07596   0.03437  -0.02647
                         RCC1      BABS1     AHCC3     AHCC4     AHCC1
   1                   -0.02174   0.00979   0.00418   0.00416   0.00205
 RFO step:  Lambda0=6.915439974D-09 Lambda= 0.00000000D+00.
 Linear search not attempted -- option 19 set.
 Variable       Old X    -DE/DX   Delta X   Delta X   Delta X     New X
                                 (Linear)    (Quad)   (Total)
   RCC1       2.53261  -0.00002   0.00000  -0.00007  -0.00007   2.53254
   RCH1       2.05338  -0.00000   0.00000  -0.00001  -0.00001   2.05337
   RCH2       2.05338  -0.00000   0.00000  -0.00001  -0.00001   2.05337
   RCH3       2.05281  -0.00000   0.00000   0.00000   0.00000   2.05281
   RCH4       2.05281  -0.00000   0.00000   0.00000   0.00000   2.05281
  AHCC1       2.12321  -0.00000   0.00000  -0.00000  -0.00000   2.12321
  AHCC2       2.12321  -0.00000   0.00000  -0.00000  -0.00000   2.12321
  AHCC3       2.12317  -0.00000   0.00000  -0.00000  -0.00000   2.12316
  AHCC4       2.12317  -0.00000   0.00000  -0.00000  -0.00000   2.12316
    B1        3.16137   0.00000   0.00000  -0.00001  -0.00001   3.16136
    B2       -0.04947  -0.00000   0.00000   0.00000   0.00000  -0.04947
    B3        3.22075   0.00001   0.00000   0.00003   0.00003   3.22077
  AABS1       1.86620   0.00000   0.00000   0.00030   0.00030   1.86650
  BABS1       1.56085   0.00000   0.00000   0.00007   0.00007   1.56092
   RTS        4.32936  -0.00000   0.00000   0.00161   0.00161   4.33097
         Item               Value     Threshold  Converged?
 Maximum Force            0.000025     0.000450     YES
 RMS     Force            0.000007     0.000300     YES
 Maximum Displacement     0.001606     0.001800     YES
 RMS     Displacement     0.000423     0.001200     YES
 Predicted change in Energy= 1.273999D-09
 Optimization completed.
    -- Stationary point found.
                       ----------------------------
                       !   Optimized Parameters   !
                       ! (Angstroms and Degrees)  !
 ----------------------                            ----------------------
 !      Name          Value   Derivative information (Atomic Units)     !
 ------------------------------------------------------------------------
 !      RCC1         1.3402   -DE/DX =    0.0                           !
 !      RCH1         1.0866   -DE/DX =    0.0                           !
 !      RCH2         1.0866   -DE/DX =    0.0                           !
 !      RCH3         1.0863   -DE/DX =    0.0                           !
 !      RCH4         1.0863   -DE/DX =    0.0                           !
 !      AHCC1      121.6511   -DE/DX =    0.0                           !
 !      AHCC2      121.6512   -DE/DX =    0.0                           !
 !      AHCC3      121.6485   -DE/DX =    0.0                           !
 !      AHCC4      121.6484   -DE/DX =    0.0                           !
 !       B1        181.1334   -DE/DX =    0.0                           !
 !       B2         -2.8346   -DE/DX =    0.0                           !
 !       B3        184.5351   -DE/DX =    0.0                           !
 !      AABS1      106.9256   -DE/DX =    0.0                           !
 !      BABS1       89.4301   -DE/DX =    0.0                           !
 !       RTS         2.291    -DE/DX =    0.0                           !
 ------------------------------------------------------------------------
 GradGradGradGradGradGradGradGradGradGradGradGradGradGradGradGradGradGrad

 ---------------------------------------------------------------------------------------------------
                            Z-MATRIX (ANGSTROMS AND DEGREES)
   CD    Cent   Atom    N1       Length/X        N2       Alpha/Y        N3        Beta/Z          J
 ---------------------------------------------------------------------------------------------------
      1      1  C 
      2      2  C        1   1.340200(     1)
      3      3  H        1   1.086600(     2)      2  121.651(     7)
      4      4  H        1   1.086600(     3)      2  121.651(     8)      3  181.133(    12)      0
      5      5  H        2   1.086300(     4)      1  121.649(     9)      3   -2.835(    13)      0
      6      6  H        2   1.086300(     5)      1  121.648(    10)      5  184.535(    14)      0
      7      7  H        2   2.291000(     6)      1  106.926(    11)      3   89.430(    15)      0
 ---------------------------------------------------------------------------------------------------
                         Z-Matrix orientation:                         
 ---------------------------------------------------------------------
 Center     Atomic      Atomic             Coordinates (Angstroms)
 Number     Number       Type             X           Y           Z
 ---------------------------------------------------------------------
      1          6           0        0.000000    0.000000    0.000000
      2          6           0        0.000000    0.000000    1.340200
      3          1           0        0.924978    0.000000   -0.570188
      4          1           0       -0.924796    0.018296   -0.570190
      5          1           0        0.923617   -0.045732    1.910189
      6          1           0       -0.924343   -0.027442    1.910187
      7          1           0        0.021800    2.191654    2.007178
 ---------------------------------------------------------------------
                    Distance matrix (angstroms):
                    1          2          3          4          5
     1  C    0.000000
     2  C    1.340200   0.000000
     3  H    1.086600   2.122538   0.000000
     4  H    1.086600   2.122539   1.849865   0.000000
     5  H    2.122259   1.086300   2.480799   3.094028   0.000000
     6  H    2.122258   1.086300   3.094027   2.480799   1.848050
     7  H    2.971967   2.291000   3.501699   3.501764   2.414244
                    6          7
     6  H    0.000000
     7  H    2.414328   0.000000
 Symmetry turned off by external request.
 Stoichiometry    C2H5(2)
 Framework group  C1[X(C2H5)]
 Deg. of freedom    15
 Full point group                 C1      NOp   1
 Rotational constants (GHZ):     66.3734595     22.2852997     21.5964109
 1\1\GINC-TT114\FTS\UB3LYP\6-31+G(d,p)\C2H5(2)\CARLO\06-Apr-2017\1\\# b
 3lyp/6-31+g(d,p) opt=(ts,calcfc,noeig,intern,maxcyc=50) # int=ultrafin
 e nosym\\geom 1\\0,2\C\C,1,RCC1\H,1,RCH1,2,AHCC1\H,1,RCH2,2,AHCC2,3,B1
 ,0\H,2,RCH3,1,AHCC3,3,B2,0\H,2,RCH4,1,AHCC4,5,B3,0\H,2,RTS,1,AABS1,3,B
 ABS1,0\\RCC1=1.3402\RCH1=1.0866\RCH2=1.0866\RCH3=1.0863\RCH4=1.0863\AH
 CC1=121.6511\AHCC2=121.6512\AHCC3=121.6485\AHCC4=121.6484\B1=181.1334\
 B2=-2.8346\B3=184.5351\AABS1=106.9256\BABS1=89.4301\RTS=2.291\\Version
 =EM64L-G09RevA.02\HF=-79.1000525\S2=0.758441\S2-1=0.\S2A=0.750003\RMSD
 =1.583e-09\RMSF=8.279e-06\Dipole=-0.0013061,-0.1315928,-0.0762279\Pola
 r=0.,0.,0.,0.,0.,0.\Quadrupole=1.1505377,-1.9256196,0.7750819,-0.03045
 39,-0.006111,-0.6161667\PG=C01 [X(C2H5)]\\@


 Everywhere is walking distance if you have the time.
                                    -- Steven Wright
 Job cpu time:  0 days  0 hours  3 minutes 55.9 seconds.
 File lengths (MBytes):  RWF=     10 Int=      0 D2E=      0 Chk=      2 Scr=      1
 Normal termination of Gaussian 09 at Thu Apr  6 02:08:15 2017.
