 Entering Gaussian System, Link 0=g09
 Input=geom.com
 Output=geom.log
 Initial command:
 /programs/64bit/g09/g09-gfortran/bin/l1.exe /data/scratch/Gau-17588.inp -scrdir=/data/scratch/
 Entering Link 1 = /programs/64bit/g09/g09-gfortran/bin/l1.exe PID=     17589.
  
 Copyright (c) 1988,1990,1992,1993,1995,1998,2003,2009, Gaussian, Inc.
                  All Rights Reserved.
  
 This is part of the Gaussian(R) 09 program.  It is based on
 the Gaussian(R) 03 system (copyright 2003, Gaussian, Inc.),
 the Gaussian(R) 98 system (copyright 1998, Gaussian, Inc.),
 the Gaussian(R) 94 system (copyright 1995, Gaussian, Inc.),
 the Gaussian 92(TM) system (copyright 1992, Gaussian, Inc.),
 the Gaussian 90(TM) system (copyright 1990, Gaussian, Inc.),
 the Gaussian 88(TM) system (copyright 1988, Gaussian, Inc.),
 the Gaussian 86(TM) system (copyright 1986, Carnegie Mellon
 University), and the Gaussian 82(TM) system (copyright 1983,
 Carnegie Mellon University). Gaussian is a federally registered
 trademark of Gaussian, Inc.
  
 This software contains proprietary and confidential information,
 including trade secrets, belonging to Gaussian, Inc.
  
 This software is provided under written license and may be
 used, copied, transmitted, or stored only in accord with that
 written license.
  
 The following legend is applicable only to US Government
 contracts under FAR:
  
                    RESTRICTED RIGHTS LEGEND
  
 Use, reproduction and disclosure by the US Government is
 subject to restrictions as set forth in subparagraphs (a)
 and (c) of the Commercial Computer Software - Restricted
 Rights clause in FAR 52.227-19.
  
 Gaussian, Inc.
 340 Quinnipiac St., Bldg. 40, Wallingford CT 06492
  
  
 ---------------------------------------------------------------
 Warning -- This program may not be used in any manner that
 competes with the business of Gaussian, Inc. or will provide
 assistance to any competitor of Gaussian, Inc.  The licensee
 of this program is prohibited from giving any competitor of
 Gaussian, Inc. access to this program.  By using this program,
 the user acknowledges that Gaussian, Inc. is engaged in the
 business of creating and licensing software in the field of
 computational chemistry and represents and warrants to the
 licensee that it is not a competitor of Gaussian, Inc. and that
 it will not use this program in any manner prohibited above.
 ---------------------------------------------------------------
  

 Cite this work as:
 Gaussian 09, Revision A.02,
 M. J. Frisch, G. W. Trucks, H. B. Schlegel, G. E. Scuseria, 
 M. A. Robb, J. R. Cheeseman, G. Scalmani, V. Barone, B. Mennucci, 
 G. A. Petersson, H. Nakatsuji, M. Caricato, X. Li, H. P. Hratchian, 
 A. F. Izmaylov, J. Bloino, G. Zheng, J. L. Sonnenberg, M. Hada, 
 M. Ehara, K. Toyota, R. Fukuda, J. Hasegawa, M. Ishida, T. Nakajima, 
 Y. Honda, O. Kitao, H. Nakai, T. Vreven, J. A. Montgomery, Jr., 
 J. E. Peralta, F. Ogliaro, M. Bearpark, J. J. Heyd, E. Brothers, 
 K. N. Kudin, V. N. Staroverov, R. Kobayashi, J. Normand, 
 K. Raghavachari, A. Rendell, J. C. Burant, S. S. Iyengar, J. Tomasi, 
 M. Cossi, N. Rega, J. M. Millam, M. Klene, J. E. Knox, J. B. Cross, 
 V. Bakken, C. Adamo, J. Jaramillo, R. Gomperts, R. E. Stratmann, 
 O. Yazyev, A. J. Austin, R. Cammi, C. Pomelli, J. W. Ochterski, 
 R. L. Martin, K. Morokuma, V. G. Zakrzewski, G. A. Voth, 
 P. Salvador, J. J. Dannenberg, S. Dapprich, A. D. Daniels, 
 O. Farkas, J. B. Foresman, J. V. Ortiz, J. Cioslowski, 
 and D. J. Fox, Gaussian, Inc., Wallingford CT, 2009.
 
 ******************************************
 Gaussian 09:  EM64L-G09RevA.02 11-Jun-2009
                 6-Apr-2017 
 ******************************************
 %mem=200MW
 %chk=tmp
 %NProcShared= 12
 Will use up to   12 processors via shared memory.
 ----------------------------------------------------------------------
 # m062x/6-311+g(d,p) opt(modredundant,calcall) # int=ultrafine nosym f
 req scf=qc
 ----------------------------------------------------------------------
 1/10=4,14=-1,18=120,19=15,26=3,38=1/1,3;
 2/9=110,12=2,15=1,17=6,18=5,40=1/2;
 3/5=4,6=6,7=111,11=2,16=1,25=1,30=1,71=2,74=-55,75=-5/1,2,3;
 4//1;
 5/5=2,8=3,38=5/8;
 8/6=4,10=90,11=11/1;
 11/6=1,8=1,9=11,15=111,16=1,31=1/1,2,10;
 10/6=1,31=1/2;
 6/7=2,8=2,9=2,10=2,18=1,28=1/1;
 7/10=1,25=1,30=1/1,2,3,16;
 1/10=4,14=-1,18=20,19=15/3(3);
 2/9=110,15=1/2;
 7/8=1,9=1,25=1,30=1,44=-1/16;
 99//99;
 2/9=110,15=1/2;
 3/5=4,6=6,7=111,11=2,16=1,25=1,30=1,71=2,74=-55,75=-5/1,2,3;
 4/5=5,16=3/1;
 5/5=2,8=3,38=5/8;
 8/6=4,10=90,11=11/1;
 11/6=1,8=1,9=11,15=111,16=1,31=1/1,2,10;
 10/6=1,31=1/2;
 7/10=1,25=1,30=1/1,2,3,16;
 1/10=4,14=-1,18=20,19=15/3(-8);
 2/9=110,15=1/2;
 6/7=2,8=2,9=2,10=2,18=1,19=2,28=1/1;
 7/8=1,9=1,25=1,30=1,44=-1/16;
 99//99;
 ------
 geom 0
 ------
 Symbolic Z-matrix:
 Charge =  0 Multiplicity = 2
 c1
 c2                   c1   rcc1
 h3                   c1   rch1     c2   ahcc1
 h4                   c1   rch2     c2   ahcc2    h3   b1       0
 h5                   c2   rch3     c1   ahcc3    h3   b2       0
 h6                   c2   rch4     c1   ahcc4    h5   b3       0
 H1                   2    rts      1    aabs1    3    babs1    0
       Variables:
  RCC1                  1.33863                  
  RCH1                  1.08345                  
  RCH2                  1.08345                  
  RCH3                  1.08388                  
  RCH4                  1.08388                  
  AHCC1               121.45775                  
  AHCC2               121.45751                  
  AHCC3               121.3486                   
  AHCC4               121.35046                  
  B1                 -178.07456                  
  B2                   -5.52979                  
  B3                 -170.85603                  
  AABS1               106.585                    
  BABS1                89.07732                  
  RTS                   1.99631                  
 
 The following ModRedundant input section has been read:
 B    1    6                                                                   
 B    1    7                                                                   

 GradGradGradGradGradGradGradGradGradGradGradGradGradGradGradGradGradGrad
 Berny optimization.
 Initialization pass.
                           ----------------------------
                           !    Initial Parameters    !
                           ! (Angstroms and Degrees)  !
 --------------------------                            --------------------------
 ! Name  Definition              Value          Derivative Info.                !
 --------------------------------------------------------------------------------
 ! R1    R(1,2)                  1.3386         calculate D2E/DX2 analytically  !
 ! R2    R(1,3)                  1.0834         calculate D2E/DX2 analytically  !
 ! R3    R(1,4)                  1.0834         calculate D2E/DX2 analytically  !
 ! R4    R(1,6)                  2.1158         calculate D2E/DX2 analytically  !
 ! R5    R(1,7)                  2.7024         calculate D2E/DX2 analytically  !
 ! R6    R(2,5)                  1.0839         calculate D2E/DX2 analytically  !
 ! R7    R(2,6)                  1.0839         calculate D2E/DX2 analytically  !
 ! R8    R(2,7)                  1.9963         calculate D2E/DX2 analytically  !
 ! A1    A(2,1,3)              121.4577         calculate D2E/DX2 analytically  !
 ! A2    A(2,1,4)              121.4575         calculate D2E/DX2 analytically  !
 ! A3    A(3,1,4)              117.0583         calculate D2E/DX2 analytically  !
 ! A4    A(1,2,5)              121.3486         calculate D2E/DX2 analytically  !
 ! A5    A(1,2,6)              121.3505         calculate D2E/DX2 analytically  !
 ! A6    A(1,2,7)              106.585          calculate D2E/DX2 analytically  !
 ! A7    A(5,2,6)              116.7049         calculate D2E/DX2 analytically  !
 ! A8    A(5,2,7)               85.2531         calculate D2E/DX2 analytically  !
 ! A9    A(6,2,7)               85.1951         calculate D2E/DX2 analytically  !
 ! D1    D(3,1,2,5)             -5.5298         calculate D2E/DX2 analytically  !
 ! D2    D(3,1,2,6)           -176.3858         calculate D2E/DX2 analytically  !
 ! D3    D(3,1,2,7)             89.0773         calculate D2E/DX2 analytically  !
 ! D4    D(4,1,2,5)            176.3957         calculate D2E/DX2 analytically  !
 ! D5    D(4,1,2,6)              5.5396         calculate D2E/DX2 analytically  !
 ! D6    D(4,1,2,7)            -88.9972         calculate D2E/DX2 analytically  !
 --------------------------------------------------------------------------------
 Trust Radius=3.00D-01 FncErr=1.00D-07 GrdErr=1.00D-06
 Number of steps in this run=  33 maximum allowed number of steps= 100.
 GradGradGradGradGradGradGradGradGradGradGradGradGradGradGradGradGradGrad

                          Input orientation:                          
 ---------------------------------------------------------------------
 Center     Atomic      Atomic             Coordinates (Angstroms)
 Number     Number       Type             X           Y           Z
 ---------------------------------------------------------------------
      1          6           0        0.000000    0.000000    0.000000
      2          6           0        0.000000    0.000000    1.338634
      3          1           0        0.924209    0.000000   -0.565419
      4          1           0       -0.923690    0.031053   -0.565415
      5          1           0        0.921347   -0.089199    1.902517
      6          1           0       -0.923793   -0.058350    1.902545
      7          1           0        0.030810    1.913011    1.908456
 ---------------------------------------------------------------------
                    Distance matrix (angstroms):
                    1          2          3          4          5
     1  C    0.000000
     2  C    1.338634   0.000000
     3  H    1.083449   2.116502   0.000000
     4  H    1.083449   2.116499   1.848160   0.000000
     5  H    2.115753   1.083883   2.469550   3.083717   0.000000
     6  H    2.115768   1.083879   3.083726   2.469579   1.845398
     7  H    2.702362   1.996311   3.252358   3.251595   2.191332
                    6          7
     6  H    0.000000
     7  H    2.190334   0.000000
 Symmetry turned off by external request.
 Stoichiometry    C2H5(2)
 Framework group  C1[X(C2H5)]
 Deg. of freedom    15
 Full point group                 C1      NOp   1
 Rotational constants (GHZ):     75.0311796     23.0012284     22.8565837
 Standard basis: 6-311+G(d,p) (5D, 7F)
 Integral buffers will be    131072 words long.
 Raffenetti 2 integral format.
 Two-electron integral symmetry is turned off.
    74 basis functions,   112 primitive gaussians,    76 cartesian basis functions
     9 alpha electrons        8 beta electrons
       nuclear repulsion energy        36.8713394134 Hartrees.
 NAtoms=    7 NActive=    7 NUniq=    7 SFac= 7.50D-01 NAtFMM=   80 NAOKFM=F Big=F
 One-electron integrals computed using PRISM.
 NBasis=    74 RedAO= T  NBF=    74
 NBsUse=    74 1.00D-06 NBFU=    74
 Harris functional with IExCor= 1009 diagonalized for initial guess.
 ExpMin= 4.38D-02 ExpMax= 4.56D+03 ExpMxC= 6.82D+02 IAcc=3 IRadAn=         5 AccDes= 0.00D+00
 HarFok:  IExCor= 1009 AccDes= 0.00D+00 IRadAn=         5 IDoV= 1
 ScaDFX=  1.000000  1.000000  1.000000  1.000000
 FoFCou: FMM=F IPFlag=           0 FMFlag=      100000 FMFlg1=           0
         NFxFlg=           0 DoJE=T BraDBF=F KetDBF=T FulRan=T
         Omega=  0.000000  0.000000  1.000000  0.000000  0.000000 ICntrl=     500 IOpCl=  0
         NMat0=    1 NMatS0=    1 NMatT0=    0 NMatD0=    1 NMtDS0=    0 NMtDT0=    0
         I1Cent=           4 NGrid=           0.
 Symmetry not used in FoFCou.
 Initial guess <Sx>= 0.0000 <Sy>= 0.0000 <Sz>= 0.5000 <S**2>= 0.7500 S= 0.5000
 Keep R1 and R2 ints in memory in canonical form, NReq=9678625.
 Gradient too large for Newton-Raphson -- use scaled steepest descent instead.
 Gradient too large for Newton-Raphson -- use scaled steepest descent instead.
 Gradient too large for Newton-Raphson -- use scaled steepest descent instead.
 Gradient too large for Newton-Raphson -- use scaled steepest descent instead.
 Gradient too large for Newton-Raphson -- use scaled steepest descent instead.
 Gradient too large for Newton-Raphson -- use scaled steepest descent instead.
 LinEq1:  Iter=  0 NonCon=     1 RMS=4.06D-04 Max=6.97D-03
 AX will form     1 AO Fock derivatives at one time.
 LinEq1:  Iter=  1 NonCon=     1 RMS=3.71D-04 Max=7.86D-03
 LinEq1:  Iter=  2 NonCon=     1 RMS=5.08D-05 Max=8.11D-04
 LinEq1:  Iter=  3 NonCon=     1 RMS=5.83D-06 Max=5.24D-05
 LinEq1:  Iter=  4 NonCon=     1 RMS=3.08D-06 Max=3.70D-05
 LinEq1:  Iter=  5 NonCon=     1 RMS=5.53D-07 Max=5.10D-06
 LinEq1:  Iter=  6 NonCon=     1 RMS=1.15D-07 Max=1.21D-06
 LinEq1:  Iter=  7 NonCon=     1 RMS=1.43D-08 Max=9.95D-08
 LinEq1:  Iter=  8 NonCon=     1 RMS=3.47D-09 Max=3.27D-08
 LinEq1:  Iter=  9 NonCon=     0 RMS=9.32D-10 Max=7.58D-09
 Linear equations converged to 3.336D-09 3.336D-08 after     9 iterations.
 LinEq1:  Iter=  0 NonCon=     1 RMS=4.52D-06 Max=5.80D-05
 LinEq1:  Iter=  1 NonCon=     1 RMS=3.66D-06 Max=6.59D-05
 LinEq1:  Iter=  2 NonCon=     1 RMS=1.21D-06 Max=1.49D-05
 LinEq1:  Iter=  3 NonCon=     1 RMS=3.83D-07 Max=5.05D-06
 LinEq1:  Iter=  4 NonCon=     1 RMS=9.65D-08 Max=1.01D-06
 LinEq1:  Iter=  5 NonCon=     1 RMS=5.41D-08 Max=9.35D-07
 LinEq1:  Iter=  6 NonCon=     1 RMS=1.33D-08 Max=1.07D-07
 LinEq1:  Iter=  7 NonCon=     1 RMS=2.56D-09 Max=2.10D-08
 LinEq1:  Iter=  8 NonCon=     0 RMS=5.70D-10 Max=6.19D-09
 Linear equations converged to 1.352D-09 1.352D-08 after     8 iterations.
 Density matrix is not symmetric, so final MOs not symmetrized.
 SCF Done:  E(UM062X) =  -79.0571474885     a.u. after    9 cycles
            Convg  =    0.3747D-07                    46 Fock formations.
              S**2 =  0.7661                  -V/T =  2.0046
 <Sx>= 0.0000 <Sy>= 0.0000 <Sz>= 0.5000 <S**2>= 0.7661 S= 0.5080
 <L.S>=  0.00000000000    
 Annihilation of the first spin contaminant:
 S**2 before annihilation     0.7661,   after     0.7500
 Range of M.O.s used for correlation:     1    74
 NBasis=    74 NAE=     9 NBE=     8 NFC=     0 NFV=     0
 NROrb=     74 NOA=     9 NOB=     8 NVA=    65 NVB=    66

 **** Warning!!: The largest alpha MO coefficient is  0.46162281D+02


 **** Warning!!: The largest beta MO coefficient is  0.46661464D+02

 Symmetrizing basis deriv contribution to polar:
 IMax=3 JMax=2 DiffMx= 0.00D+00
 G2DrvN: will do     8 centers at a time, making    1 passes doing MaxLOS=2.
 Calling FoFCou, ICntrl=  3107 FMM=F I1Cent=   0 AccDes= 0.00D+00.
 FoFDir/FoFCou used for L=0 through L=2.
 End of G2Drv Frequency-dependent properties file   721 does not exist.
 End of G2Drv Frequency-dependent properties file   722 does not exist.
          IDoAtm=1111111
          Differentiating once with respect to electric field.
                with respect to dipole field.
          Differentiating once with respect to nuclear coordinates.
          Keep R1 and R2 ints in memory in canonical form, NReq=9387419.
          There are    24 degrees of freedom in the 1st order CPHF.  IDoFFX=5.
     21 vectors produced by pass  0 Test12= 4.64D-15 4.17D-09 XBig12= 5.12D+01 3.74D+00.
 AX will form    21 AO Fock derivatives at one time.
     21 vectors produced by pass  1 Test12= 4.64D-15 4.17D-09 XBig12= 2.98D+00 5.05D-01.
     21 vectors produced by pass  2 Test12= 4.64D-15 4.17D-09 XBig12= 7.71D-02 6.69D-02.
     21 vectors produced by pass  3 Test12= 4.64D-15 4.17D-09 XBig12= 4.71D-04 4.67D-03.
     21 vectors produced by pass  4 Test12= 4.64D-15 4.17D-09 XBig12= 3.42D-06 4.29D-04.
     21 vectors produced by pass  5 Test12= 4.64D-15 4.17D-09 XBig12= 3.23D-08 4.41D-05.
     15 vectors produced by pass  6 Test12= 4.64D-15 4.17D-09 XBig12= 2.45D-10 3.23D-06.
      5 vectors produced by pass  7 Test12= 4.64D-15 4.17D-09 XBig12= 1.06D-12 1.62D-07.
      2 vectors produced by pass  8 Test12= 4.64D-15 4.17D-09 XBig12= 4.79D-15 1.49D-08.
 Inverted reduced A of dimension   148 with in-core refinement.
 Isotropic polarizability for W=    0.000000       30.63 Bohr**3.
 End of Minotr Frequency-dependent properties file   721 does not exist.
 End of Minotr Frequency-dependent properties file   722 does not exist.

 **********************************************************************

            Population analysis using the SCF density.

 **********************************************************************

 Alpha  occ. eigenvalues --  -10.55154 -10.54673  -0.87117  -0.67522  -0.55115
 Alpha  occ. eigenvalues --   -0.49592  -0.42734  -0.39789  -0.28542
 Alpha virt. eigenvalues --    0.02285   0.03690   0.04909   0.05021   0.08099
 Alpha virt. eigenvalues --    0.08749   0.09841   0.12173   0.15129   0.19443
 Alpha virt. eigenvalues --    0.19574   0.24041   0.30635   0.35020   0.39181
 Alpha virt. eigenvalues --    0.43157   0.44464   0.54169   0.55988   0.58994
 Alpha virt. eigenvalues --    0.64957   0.66865   0.73258   0.74075   0.75461
 Alpha virt. eigenvalues --    0.77724   0.91255   1.05959   1.12499   1.16084
 Alpha virt. eigenvalues --    1.34057   1.35343   1.42708   1.46207   1.54407
 Alpha virt. eigenvalues --    1.55176   1.63981   1.64391   1.66108   1.71904
 Alpha virt. eigenvalues --    1.82015   1.90837   2.00853   2.05953   2.10606
 Alpha virt. eigenvalues --    2.17653   2.18658   2.21714   2.33714   2.46747
 Alpha virt. eigenvalues --    2.47501   2.56719   2.59400   2.68146   2.78123
 Alpha virt. eigenvalues --    2.78894   2.87814   2.96036   3.15978   3.48372
 Alpha virt. eigenvalues --    3.68940   3.86214   4.14781  23.83260  24.30820
  Beta  occ. eigenvalues --  -10.55192 -10.54507  -0.86655  -0.67046  -0.54873
  Beta  occ. eigenvalues --   -0.49202  -0.42567  -0.34835
  Beta virt. eigenvalues --   -0.06971   0.02080   0.03402   0.04417   0.04598
  Beta virt. eigenvalues --    0.07676   0.08233   0.09606   0.11653   0.14687
  Beta virt. eigenvalues --    0.19442   0.19443   0.23754   0.30484   0.30640
  Beta virt. eigenvalues --    0.35083   0.43076   0.44477   0.54307   0.55892
  Beta virt. eigenvalues --    0.59181   0.64999   0.65905   0.72796   0.74743
  Beta virt. eigenvalues --    0.75679   0.77230   0.90506   1.06330   1.10899
  Beta virt. eigenvalues --    1.15497   1.21479   1.22715   1.36087   1.45208
  Beta virt. eigenvalues --    1.46554   1.50446   1.61997   1.64149   1.65233
  Beta virt. eigenvalues --    1.70382   1.82184   1.84557   2.00840   2.06033
  Beta virt. eigenvalues --    2.09677   2.17231   2.17895   2.19999   2.31114
  Beta virt. eigenvalues --    2.44814   2.46804   2.57049   2.58812   2.68417
  Beta virt. eigenvalues --    2.78128   2.79079   2.87290   2.96586   3.16229
  Beta virt. eigenvalues --    3.48550   3.69249   3.86539   4.15431  23.83359
  Beta virt. eigenvalues --   24.31026
          Condensed to atoms (all electrons):
              1          2          3          4          5          6
     1  C    4.949111   0.558650   0.396381   0.396354  -0.050979  -0.050969
     2  C    0.558650   5.095676  -0.020021  -0.019989   0.426767   0.426739
     3  H    0.396381  -0.020021   0.498890  -0.026167  -0.007016   0.005094
     4  H    0.396354  -0.019989  -0.026167   0.498892   0.005093  -0.007017
     5  H   -0.050979   0.426767  -0.007016   0.005093   0.485211  -0.024838
     6  H   -0.050969   0.426739   0.005094  -0.007017  -0.024838   0.485247
     7  H   -0.036578   0.039321  -0.001209  -0.001206  -0.022640  -0.022712
              7
     1  C   -0.036578
     2  C    0.039321
     3  H   -0.001209
     4  H   -0.001206
     5  H   -0.022640
     6  H   -0.022712
     7  H    1.060855
 Mulliken atomic charges:
              1
     1  C   -0.161970
     2  C   -0.507143
     3  H    0.154048
     4  H    0.154040
     5  H    0.188402
     6  H    0.188456
     7  H   -0.015832
 Sum of Mulliken atomic charges =   0.00000
 Mulliken charges with hydrogens summed into heavy atoms:
              1
     1  C    0.146118
     2  C   -0.146118
 Sum of Mulliken charges with hydrogens summed into heavy atoms =   0.00000
          Atomic-Atomic Spin Densities.
              1          2          3          4          5          6
     1  C    0.335675   0.021484  -0.003137  -0.003128  -0.002359  -0.002389
     2  C    0.021484  -0.177594   0.002447   0.002438   0.008849   0.008905
     3  H   -0.003137   0.002447  -0.014346   0.000576   0.000259   0.000073
     4  H   -0.003128   0.002438   0.000576  -0.014346   0.000072   0.000258
     5  H   -0.002359   0.008849   0.000259   0.000072   0.020039   0.003034
     6  H   -0.002389   0.008905   0.000073   0.000258   0.003034   0.020088
     7  H   -0.044835  -0.037952  -0.001008  -0.001004  -0.020248  -0.020326
              7
     1  C   -0.044835
     2  C   -0.037952
     3  H   -0.001008
     4  H   -0.001004
     5  H   -0.020248
     6  H   -0.020326
     7  H    1.006469
 Mulliken atomic spin densities:
              1
     1  C    0.301311
     2  C   -0.171423
     3  H   -0.015138
     4  H   -0.015134
     5  H    0.009645
     6  H    0.009643
     7  H    0.881095
 Sum of Mulliken atomic spin densities =   1.00000
 APT atomic charges:
              1
     1  C   -0.103094
     2  C   -0.106327
     3  H    0.051532
     4  H    0.051496
     5  H    0.054108
     6  H    0.054070
     7  H   -0.001786
 Sum of APT charges=   0.00000
 APT Atomic charges with hydrogens summed into heavy atoms:
              1
     1  C   -0.000066
     2  C    0.000066
     3  H    0.000000
     4  H    0.000000
     5  H    0.000000
     6  H    0.000000
     7  H    0.000000
 Sum of APT charges=   0.00000
 Electronic spatial extent (au):  <R**2>=            139.3227
 Charge=              0.0000 electrons
 Dipole moment (field-independent basis, Debye):
    X=             -0.0086    Y=             -0.5248    Z=             -0.2627  Tot=              0.5869
 Quadrupole moment (field-independent basis, Debye-Ang):
   XX=            -13.6493   YY=            -18.3505   ZZ=            -14.3959
   XY=             -0.0783   XZ=             -0.0221   YZ=             -1.3493
 Traceless Quadrupole moment (field-independent basis, Debye-Ang):
   XX=              1.8159   YY=             -2.8853   ZZ=              1.0693
   XY=             -0.0783   XZ=             -0.0221   YZ=             -1.3493
 Octapole moment (field-independent basis, Debye-Ang**2):
  XXX=             -0.1436  YYY=            -10.9521  ZZZ=            -34.7995  XYY=             -0.0809
  XXY=             -2.9682  XXZ=            -10.9846  XZZ=             -0.0920  YZZ=             -5.6537
  YYZ=            -15.8130  XYZ=             -0.0796
 Hexadecapole moment (field-independent basis, Debye-Ang**3):
 XXXX=            -28.8252 YYYY=            -61.2455 ZZZZ=           -140.9739 XXXY=             -0.2598
 XXXZ=             -0.2849 YYYX=             -0.2588 YYYZ=            -21.8149 ZZZX=             -0.3631
 ZZZY=            -22.4168 XXYY=            -14.9917 XXZZ=            -24.6244 YYZZ=            -40.0291
 XXYZ=             -5.8831 YYXZ=             -0.1620 ZZXY=             -0.2519
 N-N= 3.687133941336D+01 E-N=-3.819391439782D+02  KE= 1.176853391831D+02
  Exact polarizability:  22.368   0.124  30.046   0.123   7.546  39.469
 Approx polarizability:  24.067   0.100  30.515   0.114   7.036  44.795
                          Isotropic Fermi Contact Couplings
        Atom                 a.u.       MegaHertz       Gauss      10(-4) cm-1
     1  C(13)              0.03757      42.23314      15.06983      14.08746
     2  C(13)              0.01687      18.96367       6.76671       6.32560
     3  H(1)              -0.00421     -18.82971      -6.71891      -6.28091
     4  H(1)              -0.00421     -18.82898      -6.71865      -6.28067
     5  H(1)               0.00567      25.33295       9.03943       8.45016
     6  H(1)               0.00569      25.41317       9.06805       8.47692
     7  H(1)               0.27158    1213.92069     433.15707     404.92036
 --------------------------------------------------------
       Center         ----  Spin Dipole Couplings  ----
                      3XX-RR        3YY-RR        3ZZ-RR
 --------------------------------------------------------
     1   Atom       -0.150455      0.302131     -0.151675
     2   Atom        0.038553     -0.102868      0.064315
     3   Atom        0.009133     -0.001828     -0.007305
     4   Atom        0.009233     -0.001932     -0.007301
     5   Atom       -0.008451      0.010801     -0.002350
     6   Atom       -0.007792      0.010152     -0.002361
     7   Atom        0.005599     -0.009721      0.004121
 --------------------------------------------------------
                        XY            XZ            YZ
 --------------------------------------------------------
     1   Atom        0.007591      0.000141      0.008694
     2   Atom       -0.002404      0.000060      0.005272
     3   Atom       -0.001750     -0.019673      0.004311
     4   Atom        0.001374      0.019802      0.003653
     5   Atom       -0.009880     -0.002477      0.000252
     6   Atom        0.010493      0.002476      0.000170
     7   Atom       -0.000248     -0.000070     -0.004422
 --------------------------------------------------------


 ---------------------------------------------------------------------------------
              Anisotropic Spin Dipole Couplings in Principal Axis System
 ---------------------------------------------------------------------------------

       Atom             a.u.   MegaHertz   Gauss  10(-4) cm-1        Axes

              Baa    -0.1518   -20.376    -7.271    -6.797  0.0037 -0.0192  0.9998
     1 C(13)  Bbb    -0.1506   -20.207    -7.210    -6.740  0.9999 -0.0167 -0.0041
              Bcc     0.3024    40.582    14.481    13.537  0.0168  0.9997  0.0191
 
              Baa    -0.1031   -13.832    -4.935    -4.614  0.0170  0.9994 -0.0315
     2 C(13)  Bbb     0.0386     5.179     1.848     1.727  0.9999 -0.0169  0.0011
              Bcc     0.0645     8.653     3.088     2.886 -0.0006  0.0315  0.9995
 
              Baa    -0.0208   -11.085    -3.955    -3.697  0.5385 -0.1393  0.8310
     3 H(1)   Bbb    -0.0021    -1.101    -0.393    -0.367  0.2062  0.9780  0.0304
              Bcc     0.0228    12.185     4.348     4.065  0.8170 -0.1550 -0.5554
 
              Baa    -0.0208   -11.082    -3.954    -3.697 -0.5429 -0.1215  0.8310
     4 H(1)   Bbb    -0.0021    -1.099    -0.392    -0.367 -0.1735  0.9844  0.0306
              Bcc     0.0228    12.182     4.347     4.063  0.8217  0.1275  0.5555
 
              Baa    -0.0131    -6.972    -2.488    -2.325  0.9059  0.3729  0.2006
     5 H(1)   Bbb    -0.0020    -1.059    -0.378    -0.353 -0.1582 -0.1415  0.9772
              Bcc     0.0151     8.031     2.866     2.679 -0.3928  0.9170  0.0692
 
              Baa    -0.0131    -6.974    -2.488    -2.326  0.8934 -0.4022 -0.2002
     6 H(1)   Bbb    -0.0020    -1.066    -0.380    -0.356  0.1532 -0.1460  0.9773
              Bcc     0.0151     8.040     2.869     2.682  0.4223  0.9038  0.0688
 
              Baa    -0.0110    -5.878    -2.097    -1.961  0.0155  0.9598  0.2804
     7 H(1)   Bbb     0.0054     2.888     1.031     0.963 -0.0119 -0.2803  0.9599
              Bcc     0.0056     2.990     1.067     0.997  0.9998 -0.0182  0.0071
 

 ---------------------------------------------------------------------------------

 Calling FoFJK, ICntrl=    100127 FMM=F ISym2X=0 I1Cent= 0 IOpClX= 1 NMat=1 NMatS=1 NMatT=0.
 -------------------------------------------------------------------
 Center     Atomic                   Forces (Hartrees/Bohr)
 Number     Number              X              Y              Z
 -------------------------------------------------------------------
      1        6          -0.000000497    0.000005014   -0.000017245
      2        6          -0.000004097    0.000004230    0.000014337
      3        1          -0.000001102   -0.000001961    0.000000385
      4        1           0.000000654   -0.000000438    0.000000118
      5        1          -0.000001486   -0.000000399    0.000000598
      6        1          -0.000000426   -0.000017160   -0.000001159
      7        1           0.000006954    0.000010714    0.000002965
 -------------------------------------------------------------------
 Cartesian Forces:  Max     0.000017245 RMS     0.000007036

 GradGradGradGradGradGradGradGradGradGradGradGradGradGradGradGradGradGrad
 Berny optimization.
 Internal  Forces:  Max     0.000015265 RMS     0.000005581
 Search for a local minimum.
 Step number   1 out of a maximum of   33
 All quantities printed in internal units (Hartrees-Bohrs-Radians)
 Mixed Optimization -- En-DIIS/RFO-DIIS
 Second derivative matrix not updated -- analytic derivatives used.
     Eigenvalues ---   -0.01166   0.00964   0.01329   0.02564   0.02959
     Eigenvalues ---    0.03743   0.05775   0.10206   0.10725   0.12990
     Eigenvalues ---    0.25070   0.36401   0.36483   0.36681   0.45488
     Eigenvalues --- 1000.000001000.000001000.000001000.000001000.00000
     Eigenvalues --- 1000.000001000.000001000.00000
 RFO step:  Lambda=-1.16586499D-02 EMin=-1.16586469D-02
 RFO eigenvector is Hessian eigenvector with negative curvature.
 Taking step of  7.50D-01 in eigenvector direction.  Step.Grad= -5.32D-06.
 Linear search not attempted -- first point.
 Maximum step size (   0.300) exceeded in Quadratic search.
    -- Step size scaled by   0.400
 Iteration  1 RMS(Cart)=  0.03437144 RMS(Int)=  0.01027316
 Iteration  2 RMS(Cart)=  0.01089058 RMS(Int)=  0.00030804
 Iteration  3 RMS(Cart)=  0.00005034 RMS(Int)=  0.00030535
 Iteration  4 RMS(Cart)=  0.00000000 RMS(Int)=  0.00030535
 Variable       Old X    -DE/DX   Delta X   Delta X   Delta X     New X
                                 (Linear)    (Quad)   (Total)
    R1        2.52965   0.00001   0.00000  -0.01540  -0.01508   2.51457
    R2        2.04742  -0.00000   0.00000   0.00064   0.00064   2.04806
    R3        2.04742  -0.00000   0.00000   0.00065   0.00065   2.04807
    R4        3.99822   0.00000   0.00000  -0.00782  -0.00806   3.99017
    R5        5.10673   0.00000   0.00000   0.13215   0.13198   5.23871
    R6        2.04824  -0.00000   0.00000   0.00014   0.00014   2.04838
    R7        2.04823  -0.00000   0.00000   0.00031   0.00051   2.04874
    R8        3.77248   0.00001   0.00000   0.25370   0.25384   4.02632
    A1        2.11984  -0.00000   0.00000   0.00085   0.00084   2.12068
    A2        2.11983   0.00000   0.00000   0.00097   0.00096   2.12079
    A3        2.04305  -0.00000   0.00000  -0.00157  -0.00159   2.04147
    A4        2.11793   0.00000   0.00000   0.00445   0.00360   2.12153
    A5        2.11797  -0.00000   0.00000   0.00521   0.00460   2.12257
    A6        1.86026  -0.00001   0.00000  -0.04481  -0.04455   1.81571
    A7        2.03689  -0.00000   0.00000   0.00012  -0.00074   2.03615
    A8        1.48795  -0.00000   0.00000  -0.00841  -0.00845   1.47950
    A9        1.48693   0.00002   0.00000  -0.00875  -0.00880   1.47813
    D1       -0.09651   0.00000   0.00000   0.04165   0.04166  -0.05485
    D2       -3.07851   0.00001   0.00000  -0.03286  -0.03286  -3.11138
    D3        1.55469  -0.00000   0.00000   0.00447   0.00446   1.55916
    D4        3.07869  -0.00000   0.00000   0.03281   0.03282   3.11151
    D5        0.09668   0.00001   0.00000  -0.04169  -0.04170   0.05498
    D6       -1.55329  -0.00001   0.00000  -0.00437  -0.00437  -1.55767
         Item               Value     Threshold  Converged?
 Maximum Force            0.000015     0.000450     YES
 RMS     Force            0.000006     0.000300     YES
 Maximum Displacement     0.174679     0.001800     NO 
 RMS     Displacement     0.043693     0.001200     NO 
 Predicted change in Energy=-5.267176D-04
 GradGradGradGradGradGradGradGradGradGradGradGradGradGradGradGradGradGrad

                          Input orientation:                          
 ---------------------------------------------------------------------
 Center     Atomic      Atomic             Coordinates (Angstroms)
 Number     Number       Type             X           Y           Z
 ---------------------------------------------------------------------
      1          6           0       -0.000076   -0.005890    0.003218
      2          6           0       -0.000864   -0.045186    1.333291
      3          1           0        0.924273    0.006682   -0.562480
      4          1           0       -0.923306    0.037863   -0.562763
      5          1           0        0.920858   -0.116702    1.899217
      6          1           0       -0.924151   -0.085699    1.900103
      7          1           0        0.032150    2.005447    1.910732
 ---------------------------------------------------------------------
                    Distance matrix (angstroms):
                    1          2          3          4          5
     1  C    0.000000
     2  C    1.330654   0.000000
     3  H    1.083786   2.110099   0.000000
     4  H    1.083791   2.110170   1.847842   0.000000
     5  H    2.110737   1.083955   2.464790   3.079964   0.000000
     6  H    2.111506   1.084147   3.080506   2.465964   1.845269
     7  H    2.772206   2.130639   3.302684   3.301888   2.300749
                    6          7
     6  H    0.000000
     7  H    2.299460   0.000000
 Symmetry turned off by external request.
 Stoichiometry    C2H5(2)
 Framework group  C1[X(C2H5)]
 Deg. of freedom    15
 Full point group                 C1      NOp   1
 Rotational constants (GHZ):     69.7135532     23.0795501     22.6894310
 Standard basis: 6-311+G(d,p) (5D, 7F)
 Integral buffers will be    131072 words long.
 Raffenetti 2 integral format.
 Two-electron integral symmetry is turned off.
    74 basis functions,   112 primitive gaussians,    76 cartesian basis functions
     9 alpha electrons        8 beta electrons
       nuclear repulsion energy        36.8129804390 Hartrees.
 NAtoms=    7 NActive=    7 NUniq=    7 SFac= 7.50D-01 NAtFMM=   80 NAOKFM=F Big=F
 One-electron integrals computed using PRISM.
 NBasis=    74 RedAO= T  NBF=    74
 NBsUse=    74 1.00D-06 NBFU=    74
 Initial guess read from the read-write file.
 B after Tr=     0.000000    0.000000    0.000000
         Rot=    1.000000    0.000000    0.000000    0.000000 Ang=   0.00 deg.
 Initial guess <Sx>= 0.0000 <Sy>= 0.0000 <Sz>= 0.5000 <S**2>= 0.7666 S= 0.5082
 Harris functional with IExCor= 1009 diagonalized for initial guess.
 ExpMin= 4.38D-02 ExpMax= 4.56D+03 ExpMxC= 6.82D+02 IAcc=3 IRadAn=         5 AccDes= 0.00D+00
 HarFok:  IExCor= 1009 AccDes= 0.00D+00 IRadAn=         5 IDoV= 1
 ScaDFX=  1.000000  1.000000  1.000000  1.000000
 FoFCou: FMM=F IPFlag=           0 FMFlag=      100000 FMFlg1=           0
         NFxFlg=           0 DoJE=T BraDBF=F KetDBF=T FulRan=T
         Omega=  0.000000  0.000000  1.000000  0.000000  0.000000 ICntrl=     500 IOpCl=  0
         NMat0=    1 NMatS0=    1 NMatT0=    0 NMatD0=    1 NMtDS0=    0 NMtDT0=    0
         I1Cent=           4 NGrid=           0.
 Symmetry not used in FoFCou.
 Keep R1 and R2 ints in memory in canonical form, NReq=9678625.
 Gradient too large for Newton-Raphson -- use scaled steepest descent instead.
 Gradient too large for Newton-Raphson -- use scaled steepest descent instead.
 LinEq1:  Iter=  0 NonCon=     1 RMS=2.85D-04 Max=5.42D-03
 AX will form     1 AO Fock derivatives at one time.
 LinEq1:  Iter=  1 NonCon=     1 RMS=2.59D-04 Max=5.10D-03
 LinEq1:  Iter=  2 NonCon=     1 RMS=4.75D-05 Max=6.17D-04
 LinEq1:  Iter=  3 NonCon=     1 RMS=2.84D-05 Max=3.93D-04
 LinEq1:  Iter=  4 NonCon=     1 RMS=8.54D-06 Max=1.60D-04
 LinEq1:  Iter=  5 NonCon=     1 RMS=2.19D-06 Max=3.39D-05
 LinEq1:  Iter=  6 NonCon=     1 RMS=4.09D-07 Max=4.52D-06
 LinEq1:  Iter=  7 NonCon=     1 RMS=7.97D-08 Max=9.12D-07
 LinEq1:  Iter=  8 NonCon=     1 RMS=1.96D-08 Max=2.28D-07
 LinEq1:  Iter=  9 NonCon=     1 RMS=4.11D-09 Max=3.50D-08
 LinEq1:  Iter= 10 NonCon=     0 RMS=1.12D-09 Max=1.31D-08
 Linear equations converged to 3.336D-09 3.336D-08 after    10 iterations.
 LinEq1:  Iter=  0 NonCon=     1 RMS=2.38D-06 Max=3.10D-05
 LinEq1:  Iter=  1 NonCon=     1 RMS=1.30D-06 Max=1.83D-05
 LinEq1:  Iter=  2 NonCon=     1 RMS=5.37D-07 Max=6.17D-06
 LinEq1:  Iter=  3 NonCon=     1 RMS=2.88D-07 Max=3.52D-06
 LinEq1:  Iter=  4 NonCon=     1 RMS=1.39D-07 Max=1.47D-06
 LinEq1:  Iter=  5 NonCon=     1 RMS=5.29D-08 Max=6.13D-07
 LinEq1:  Iter=  6 NonCon=     1 RMS=1.18D-08 Max=1.34D-07
 LinEq1:  Iter=  7 NonCon=     1 RMS=2.92D-09 Max=3.04D-08
 LinEq1:  Iter=  8 NonCon=     1 RMS=6.56D-10 Max=1.01D-08
 LinEq1:  Iter=  9 NonCon=     0 RMS=1.63D-10 Max=1.78D-09
 Linear equations converged to 9.145D-10 9.145D-09 after     9 iterations.
 Density matrix is not symmetric, so final MOs not symmetrized.
 SCF Done:  E(UM062X) =  -79.0575026713     a.u. after    5 cycles
            Convg  =    0.8771D-08                    34 Fock formations.
              S**2 =  0.7594                  -V/T =  2.0044
 <Sx>= 0.0000 <Sy>= 0.0000 <Sz>= 0.5000 <S**2>= 0.7594 S= 0.5047
 <L.S>=  0.00000000000    
 Annihilation of the first spin contaminant:
 S**2 before annihilation     0.7594,   after     0.7500
 Range of M.O.s used for correlation:     1    74
 NBasis=    74 NAE=     9 NBE=     8 NFC=     0 NFV=     0
 NROrb=     74 NOA=     9 NOB=     8 NVA=    65 NVB=    66

 **** Warning!!: The largest alpha MO coefficient is  0.46810786D+02


 **** Warning!!: The largest beta MO coefficient is  0.46723900D+02

 Symmetrizing basis deriv contribution to polar:
 IMax=3 JMax=2 DiffMx= 0.00D+00
 G2DrvN: will do     8 centers at a time, making    1 passes doing MaxLOS=2.
 Calling FoFCou, ICntrl=  3107 FMM=F I1Cent=   0 AccDes= 0.00D+00.
 FoFDir/FoFCou used for L=0 through L=2.
 End of G2Drv Frequency-dependent properties file   721 does not exist.
 End of G2Drv Frequency-dependent properties file   722 does not exist.
          IDoAtm=1111111
          Differentiating once with respect to electric field.
                with respect to dipole field.
          Differentiating once with respect to nuclear coordinates.
          Keep R1 and R2 ints in memory in canonical form, NReq=9387419.
          There are    24 degrees of freedom in the 1st order CPHF.  IDoFFX=5.
     21 vectors produced by pass  0 Test12= 4.64D-15 4.17D-09 XBig12= 4.92D+01 3.67D+00.
 AX will form    21 AO Fock derivatives at one time.
     21 vectors produced by pass  1 Test12= 4.64D-15 4.17D-09 XBig12= 3.23D+00 4.77D-01.
     21 vectors produced by pass  2 Test12= 4.64D-15 4.17D-09 XBig12= 8.21D-02 6.85D-02.
     21 vectors produced by pass  3 Test12= 4.64D-15 4.17D-09 XBig12= 8.89D-04 1.53D-02.
     21 vectors produced by pass  4 Test12= 4.64D-15 4.17D-09 XBig12= 1.38D-05 8.51D-04.
     21 vectors produced by pass  5 Test12= 4.64D-15 4.17D-09 XBig12= 1.11D-07 6.75D-05.
     15 vectors produced by pass  6 Test12= 4.64D-15 4.17D-09 XBig12= 7.89D-10 4.67D-06.
      5 vectors produced by pass  7 Test12= 4.64D-15 4.17D-09 XBig12= 2.61D-12 2.93D-07.
      2 vectors produced by pass  8 Test12= 4.64D-15 4.17D-09 XBig12= 1.14D-14 1.71D-08.
 Inverted reduced A of dimension   148 with in-core refinement.
 Isotropic polarizability for W=    0.000000       29.77 Bohr**3.
 End of Minotr Frequency-dependent properties file   721 does not exist.
 End of Minotr Frequency-dependent properties file   722 does not exist.
 Calling FoFJK, ICntrl=    100127 FMM=F ISym2X=0 I1Cent= 0 IOpClX= 1 NMat=1 NMatS=1 NMatT=0.
 -------------------------------------------------------------------
 Center     Atomic                   Forces (Hartrees/Bohr)
 Number     Number              X              Y              Z
 -------------------------------------------------------------------
      1        6          -0.000060265   -0.000294465   -0.002797940
      2        6          -0.000075553   -0.002014920    0.001785055
      3        1          -0.000047844   -0.000090819   -0.000018733
      4        1           0.000044775   -0.000089783   -0.000021761
      5        1           0.000048550    0.000011546    0.000034042
      6        1           0.000045177    0.000007705   -0.000099364
      7        1           0.000045159    0.002470735    0.001118700
 -------------------------------------------------------------------
 Cartesian Forces:  Max     0.002797940 RMS     0.001036614

 GradGradGradGradGradGradGradGradGradGradGradGradGradGradGradGradGradGrad
 Berny optimization.
 Using GEDIIS/GDIIS optimizer.
 Internal  Forces:  Max     0.001530637 RMS     0.000574461
 Search for a local minimum.
 Step number   2 out of a maximum of   33
 All quantities printed in internal units (Hartrees-Bohrs-Radians)
 Mixed Optimization -- En-DIIS/RFO-DIIS
 Swaping is turned off.
 Second derivative matrix not updated -- analytic derivatives used.
 DE= -3.55D-04 DEPred=-5.27D-04 R= 6.74D-01
 SS=  1.41D+00  RLast= 3.00D-01 DXNew= 5.0454D-01 8.9997D-01
 Trust test= 6.74D-01 RLast= 3.00D-01 DXMaxT set to 5.05D-01
     Eigenvalues ---   -0.00298   0.00685   0.00857   0.02586   0.02830
     Eigenvalues ---    0.03584   0.05820   0.10284   0.10782   0.13039
     Eigenvalues ---    0.25335   0.36389   0.36421   0.36614   0.48482
     Eigenvalues --- 1000.000001000.000001000.000001000.000001000.00000
     Eigenvalues --- 1000.000001000.000001000.00000
 Use linear search instead of GDIIS.
 Linear search step of   0.600 exceeds DXMaxT=   0.505 but not scaled.
 RFO step:  Lambda=-3.01306042D-03 EMin=-2.97932717D-03
 RFO eigenvector is Hessian eigenvector with negative curvature.
 Taking step of  1.00D+00 in eigenvector direction.  Step.Grad= -3.11D-04.
 Quintic linear search produced a step of  2.00000.
 Maximum step size (   0.505) exceeded in Quadratic search.
    -- Step size scaled by   0.505
 Iteration  1 RMS(Cart)=  0.03911783 RMS(Int)=  0.16317001
 Iteration  2 RMS(Cart)=  0.04584817 RMS(Int)=  0.10319207
 Iteration  3 RMS(Cart)=  0.04301696 RMS(Int)=  0.04536888
 Iteration  4 RMS(Cart)=  0.04430138 RMS(Int)=  0.00350157
 Iteration  5 RMS(Cart)=  0.00067937 RMS(Int)=  0.00346559
 Iteration  6 RMS(Cart)=  0.00000042 RMS(Int)=  0.00346559
 Variable       Old X    -DE/DX   Delta X   Delta X   Delta X     New X
                                 (Linear)    (Quad)   (Total)
    R1        2.51457   0.00152  -0.03016  -0.01274  -0.03982   2.47476
    R2        2.04806  -0.00003   0.00127   0.00061   0.00189   2.04995
    R3        2.04807  -0.00003   0.00129   0.00062   0.00191   2.04998
    R4        3.99017   0.00049  -0.01611  -0.00759  -0.02650   3.96367
    R5        5.23871   0.00130   0.26397   0.25912   0.52198   5.76069
    R6        2.04838   0.00006   0.00027   0.00042   0.00069   2.04907
    R7        2.04874  -0.00050   0.00101   0.00047   0.00385   2.05259
    R8        4.02632   0.00153   0.50769   0.41998   0.92866   4.95499
    A1        2.12068   0.00002   0.00168   0.00098   0.00250   2.12317
    A2        2.12079   0.00003   0.00192   0.00100   0.00275   2.12355
    A3        2.04147  -0.00005  -0.00317  -0.00169  -0.00502   2.03645
    A4        2.12153   0.00024   0.00719   0.00298   0.00028   2.12181
    A5        2.12257  -0.00041   0.00921   0.00316   0.00552   2.12808
    A6        1.81571  -0.00057  -0.08911  -0.05550  -0.14241   1.67329
    A7        2.03615   0.00019  -0.00147  -0.00023  -0.01168   2.02447
    A8        1.47950   0.00019  -0.01690  -0.00697  -0.02409   1.45541
    A9        1.47813   0.00027  -0.01760  -0.00764  -0.02530   1.45283
    D1       -0.05485   0.00014   0.08332   0.04979   0.13242   0.07757
    D2       -3.11138  -0.00006  -0.06573  -0.03562  -0.10073   3.07108
    D3        1.55916   0.00008   0.00893   0.00750   0.01650   1.57566
    D4        3.11151   0.00003   0.06565   0.03543   0.10038  -3.07129
    D5        0.05498  -0.00016  -0.08340  -0.04998  -0.13277  -0.07779
    D6       -1.55767  -0.00003  -0.00875  -0.00686  -0.01554  -1.57320
         Item               Value     Threshold  Converged?
 Maximum Force            0.001531     0.000450     NO 
 RMS     Force            0.000574     0.000300     NO 
 Maximum Displacement     0.649426     0.001800     NO 
 RMS     Displacement     0.161514     0.001200     NO 
 Predicted change in Energy=-3.837327D-03
 GradGradGradGradGradGradGradGradGradGradGradGradGradGradGradGradGradGrad

                          Input orientation:                          
 ---------------------------------------------------------------------
 Center     Atomic      Atomic             Coordinates (Angstroms)
 Number     Number       Type             X           Y           Z
 ---------------------------------------------------------------------
      1          6           0       -0.000174   -0.026655    0.013839
      2          6           0       -0.003953   -0.200265    1.311859
      3          1           0        0.924721    0.029414   -0.550239
      4          1           0       -0.921700    0.061584   -0.551669
      5          1           0        0.916753   -0.223921    1.884127
      6          1           0       -0.923604   -0.192751    1.889773
      7          1           0        0.036841    2.349108    1.923627
 ---------------------------------------------------------------------
                    Distance matrix (angstroms):
                    1          2          3          4          5
     1  C    0.000000
     2  C    1.309584   0.000000
     3  H    1.084785   2.093466   0.000000
     4  H    1.084803   2.093696   1.846702   0.000000
     5  H    2.092282   1.084320   2.447526   3.065050   0.000000
     6  H    2.097484   1.086184   3.069091   2.454655   1.840629
     7  H    3.048427   2.622065   3.505614   3.504092   2.719611
                    6          7
     6  H    0.000000
     7  H    2.717471   0.000000
 Symmetry turned off by external request.
 Stoichiometry    C2H5(2)
 Framework group  C1[X(C2H5)]
 Deg. of freedom    15
 Full point group                 C1      NOp   1
 Rotational constants (GHZ):     53.4152832     23.8812251     21.2592884
 Standard basis: 6-311+G(d,p) (5D, 7F)
 Integral buffers will be    131072 words long.
 Raffenetti 2 integral format.
 Two-electron integral symmetry is turned off.
    74 basis functions,   112 primitive gaussians,    76 cartesian basis functions
     9 alpha electrons        8 beta electrons
       nuclear repulsion energy        36.6109830204 Hartrees.
 NAtoms=    7 NActive=    7 NUniq=    7 SFac= 7.50D-01 NAtFMM=   80 NAOKFM=F Big=F
 One-electron integrals computed using PRISM.
 NBasis=    74 RedAO= T  NBF=    74
 NBsUse=    74 1.00D-06 NBFU=    74
 Initial guess read from the read-write file.
 B after Tr=     0.000000    0.000000    0.000000
         Rot=    1.000000    0.000000    0.000000    0.000000 Ang=   0.00 deg.
 Initial guess <Sx>= 0.0000 <Sy>= 0.0000 <Sz>= 0.5000 <S**2>= 0.7600 S= 0.5050
 Harris functional with IExCor= 1009 diagonalized for initial guess.
 ExpMin= 4.38D-02 ExpMax= 4.56D+03 ExpMxC= 6.82D+02 IAcc=3 IRadAn=         5 AccDes= 0.00D+00
 HarFok:  IExCor= 1009 AccDes= 0.00D+00 IRadAn=         5 IDoV= 1
 ScaDFX=  1.000000  1.000000  1.000000  1.000000
 FoFCou: FMM=F IPFlag=           0 FMFlag=      100000 FMFlg1=           0
         NFxFlg=           0 DoJE=T BraDBF=F KetDBF=T FulRan=T
         Omega=  0.000000  0.000000  1.000000  0.000000  0.000000 ICntrl=     500 IOpCl=  0
         NMat0=    1 NMatS0=    1 NMatT0=    0 NMatD0=    1 NMtDS0=    0 NMtDT0=    0
         I1Cent=           4 NGrid=           0.
 Symmetry not used in FoFCou.
 Keep R1 and R2 ints in memory in canonical form, NReq=9678927.
 Gradient too large for Newton-Raphson -- use scaled steepest descent instead.
 Gradient too large for Newton-Raphson -- use scaled steepest descent instead.
 Gradient too large for Newton-Raphson -- use scaled steepest descent instead.
 LinEq1:  Iter=  0 NonCon=     1 RMS=4.51D-04 Max=1.08D-02
 AX will form     1 AO Fock derivatives at one time.
 LinEq1:  Iter=  1 NonCon=     1 RMS=8.37D-04 Max=1.26D-02
 LinEq1:  Iter=  2 NonCon=     1 RMS=5.14D-04 Max=6.64D-03
 LinEq1:  Iter=  3 NonCon=     1 RMS=3.78D-04 Max=5.74D-03
 LinEq1:  Iter=  4 NonCon=     1 RMS=1.17D-04 Max=1.21D-03
 LinEq1:  Iter=  5 NonCon=     1 RMS=7.77D-05 Max=9.31D-04
 LinEq1:  Iter=  6 NonCon=     1 RMS=3.79D-05 Max=8.18D-04
 LinEq1:  Iter=  7 NonCon=     1 RMS=3.27D-05 Max=4.89D-04
 LinEq1:  Iter=  8 NonCon=     1 RMS=1.51D-05 Max=1.25D-04
 LinEq1:  Iter=  9 NonCon=     1 RMS=5.76D-06 Max=4.47D-05
 LinEq1:  Iter= 10 NonCon=     1 RMS=1.13D-06 Max=8.09D-06
 LinEq1:  Iter= 11 NonCon=     1 RMS=3.73D-07 Max=5.52D-06
 LinEq1:  Iter= 12 NonCon=     1 RMS=3.11D-07 Max=8.83D-06
 LinEq1:  Iter= 13 NonCon=     1 RMS=1.20D-07 Max=8.09D-07
 LinEq1:  Iter= 14 NonCon=     1 RMS=2.23D-08 Max=1.46D-07
 LinEq1:  Iter= 15 NonCon=     1 RMS=4.03D-09 Max=3.68D-08
 LinEq1:  Iter= 16 NonCon=     0 RMS=4.80D-10 Max=3.32D-09
 Linear equations converged to 3.336D-09 3.336D-08 after    16 iterations.
 LinEq1:  Iter=  0 NonCon=     1 RMS=1.11D-05 Max=2.02D-04
 LinEq1:  Iter=  1 NonCon=     1 RMS=1.57D-05 Max=2.78D-04
 LinEq1:  Iter=  2 NonCon=     1 RMS=1.44D-05 Max=2.38D-04
 LinEq1:  Iter=  3 NonCon=     1 RMS=1.80D-05 Max=3.18D-04
 LinEq1:  Iter=  4 NonCon=     1 RMS=1.15D-05 Max=1.84D-04
 LinEq1:  Iter=  5 NonCon=     1 RMS=1.29D-05 Max=2.29D-04
 LinEq1:  Iter=  6 NonCon=     1 RMS=1.10D-05 Max=1.84D-04
 LinEq1:  Iter=  7 NonCon=     1 RMS=4.08D-06 Max=4.67D-05
 LinEq1:  Iter=  8 NonCon=     1 RMS=2.17D-06 Max=2.28D-05
 LinEq1:  Iter=  9 NonCon=     1 RMS=3.43D-07 Max=3.98D-06
 LinEq1:  Iter= 10 NonCon=     1 RMS=1.83D-07 Max=5.05D-06
 LinEq1:  Iter= 11 NonCon=     1 RMS=1.97D-07 Max=3.15D-06
 LinEq1:  Iter= 12 NonCon=     1 RMS=4.89D-08 Max=4.74D-07
 LinEq1:  Iter= 13 NonCon=     1 RMS=7.07D-09 Max=6.32D-08
 LinEq1:  Iter= 14 NonCon=     0 RMS=1.46D-09 Max=1.07D-08
 Linear equations converged to 2.166D-09 2.166D-08 after    14 iterations.
 LinEq1:  Iter=  0 NonCon=     1 RMS=2.89D-08 Max=4.41D-07
 LinEq1:  Iter=  1 NonCon=     1 RMS=5.20D-08 Max=9.62D-07
 LinEq1:  Iter=  2 NonCon=     1 RMS=1.85D-08 Max=2.42D-07
 LinEq1:  Iter=  3 NonCon=     1 RMS=1.24D-08 Max=1.96D-07
 LinEq1:  Iter=  4 NonCon=     1 RMS=8.81D-09 Max=1.16D-07
 LinEq1:  Iter=  5 NonCon=     1 RMS=8.20D-09 Max=1.49D-07
 LinEq1:  Iter=  6 NonCon=     1 RMS=6.65D-09 Max=1.00D-07
 LinEq1:  Iter=  7 NonCon=     1 RMS=4.75D-09 Max=8.49D-08
 LinEq1:  Iter=  8 NonCon=     1 RMS=3.95D-09 Max=4.45D-08
 LinEq1:  Iter=  9 NonCon=     1 RMS=8.84D-10 Max=7.37D-09
 LinEq1:  Iter= 10 NonCon=     1 RMS=4.27D-10 Max=7.96D-09
 LinEq1:  Iter= 11 NonCon=     1 RMS=4.36D-10 Max=5.80D-09
 LinEq1:  Iter= 12 NonCon=     1 RMS=9.54D-11 Max=6.89D-10
 LinEq1:  Iter= 13 NonCon=     1 RMS=2.61D-11 Max=2.21D-10
 LinEq1:  Iter= 14 NonCon=     0 RMS=4.03D-12 Max=3.24D-11
 Linear equations converged to 6.753D-12 6.753D-11 after    14 iterations.
 Search did not lower the energy significantly.
 No lower point found -- using Newton-Raphson step.
 Density matrix is not symmetric, so final MOs not symmetrized.
 SCF Done:  E(UM062X) =  -79.0586959105     a.u. after    7 cycles
            Convg  =    0.1373D-09                    80 Fock formations.
              S**2 =  0.7517                  -V/T =  2.0038
 <Sx>= 0.0000 <Sy>= 0.0000 <Sz>= 0.5000 <S**2>= 0.7517 S= 0.5009
 <L.S>=  0.00000000000    
 Annihilation of the first spin contaminant:
 S**2 before annihilation     0.7517,   after     0.7500
 Range of M.O.s used for correlation:     1    74
 NBasis=    74 NAE=     9 NBE=     8 NFC=     0 NFV=     0
 NROrb=     74 NOA=     9 NOB=     8 NVA=    65 NVB=    66

 **** Warning!!: The largest alpha MO coefficient is  0.48398227D+02


 **** Warning!!: The largest beta MO coefficient is  0.40876028D+02

 Symmetrizing basis deriv contribution to polar:
 IMax=3 JMax=2 DiffMx= 0.00D+00
 G2DrvN: will do     8 centers at a time, making    1 passes doing MaxLOS=2.
 Calling FoFCou, ICntrl=  3107 FMM=F I1Cent=   0 AccDes= 0.00D+00.
 FoFDir/FoFCou used for L=0 through L=2.
 End of G2Drv Frequency-dependent properties file   721 does not exist.
 End of G2Drv Frequency-dependent properties file   722 does not exist.
          IDoAtm=1111111
          Differentiating once with respect to electric field.
                with respect to dipole field.
          Differentiating once with respect to nuclear coordinates.
          Keep R1 and R2 ints in memory in canonical form, NReq=9387419.
          There are    24 degrees of freedom in the 1st order CPHF.  IDoFFX=5.
     21 vectors produced by pass  0 Test12= 4.64D-15 4.17D-09 XBig12= 4.38D+01 3.27D+00.
 AX will form    21 AO Fock derivatives at one time.
     21 vectors produced by pass  1 Test12= 4.64D-15 4.17D-09 XBig12= 6.64D+00 1.27D+00.
     21 vectors produced by pass  2 Test12= 4.64D-15 4.17D-09 XBig12= 5.27D+00 6.85D-01.
     21 vectors produced by pass  3 Test12= 4.64D-15 4.17D-09 XBig12= 6.11D-02 6.62D-02.
     21 vectors produced by pass  4 Test12= 4.64D-15 4.17D-09 XBig12= 3.85D-04 5.84D-03.
     21 vectors produced by pass  5 Test12= 4.64D-15 4.17D-09 XBig12= 3.45D-06 4.74D-04.
     14 vectors produced by pass  6 Test12= 4.64D-15 4.17D-09 XBig12= 2.48D-08 3.55D-05.
      5 vectors produced by pass  7 Test12= 4.64D-15 4.17D-09 XBig12= 9.40D-11 1.59D-06.
      3 vectors produced by pass  8 Test12= 4.64D-15 4.17D-09 XBig12= 4.02D-13 1.10D-07.
      2 vectors produced by pass  9 Test12= 4.64D-15 4.17D-09 XBig12= 1.77D-15 8.89D-09.
 Inverted reduced A of dimension   150 with in-core refinement.
 Isotropic polarizability for W=    0.000000       27.33 Bohr**3.
 End of Minotr Frequency-dependent properties file   721 does not exist.
 End of Minotr Frequency-dependent properties file   722 does not exist.
 Calling FoFJK, ICntrl=    100127 FMM=F ISym2X=0 I1Cent= 0 IOpClX= 1 NMat=1 NMatS=1 NMatT=0.
 -------------------------------------------------------------------
 Center     Atomic                   Forces (Hartrees/Bohr)
 Number     Number              X              Y              Z
 -------------------------------------------------------------------
      1        6          -0.000378781   -0.000481674   -0.022236769
      2        6          -0.000460252    0.006524745    0.022962582
      3        1          -0.000370833   -0.000202181   -0.000097565
      4        1           0.000365962   -0.000225275   -0.000147946
      5        1           0.000496623   -0.003672340   -0.000131104
      6        1           0.000318192   -0.003591372   -0.001202946
      7        1           0.000029089    0.001648096    0.000853748
 -------------------------------------------------------------------
 Cartesian Forces:  Max     0.022962582 RMS     0.007227429

 GradGradGradGradGradGradGradGradGradGradGradGradGradGradGradGradGradGrad
 Berny optimization.
 Using GEDIIS/GDIIS optimizer.
 Internal  Forces:  Max     0.015798816 RMS     0.004052382
 Search for a local minimum.
 Step number   3 out of a maximum of   33
 All quantities printed in internal units (Hartrees-Bohrs-Radians)
 Mixed Optimization -- RFO/linear search
 Second derivative matrix not updated -- analytic derivatives used.
 DE= -1.19D-03 DEPred=-3.84D-03 R= 3.11D-01
 Trust test= 3.11D-01 RLast= 1.10D+00 DXMaxT set to 5.05D-01
 Use linear search instead of GDIIS.
     Eigenvalues ---    0.00088   0.00113   0.00173   0.02613   0.02746
     Eigenvalues ---    0.03488   0.05900   0.10525   0.11043   0.13232
     Eigenvalues ---    0.25453   0.36083   0.36345   0.36369   0.56134
     Eigenvalues --- 1000.000001000.000001000.000001000.000001000.00000
     Eigenvalues --- 1000.000001000.000001000.00000
 RFO step:  Lambda=-1.84467113D-03 EMin= 8.77550903D-04
 Quintic linear search produced a step of -0.19326.
 Iteration  1 RMS(Cart)=  0.04496276 RMS(Int)=  0.01287936
 Iteration  2 RMS(Cart)=  0.01459488 RMS(Int)=  0.00070644
 Iteration  3 RMS(Cart)=  0.00008353 RMS(Int)=  0.00070333
 Iteration  4 RMS(Cart)=  0.00000002 RMS(Int)=  0.00070333
 Variable       Old X    -DE/DX   Delta X   Delta X   Delta X     New X
                                 (Linear)    (Quad)   (Total)
    R1        2.47476   0.01580   0.00769   0.02432   0.03241   2.50717
    R2        2.04995  -0.00028  -0.00036  -0.00107  -0.00143   2.04851
    R3        2.04998  -0.00025  -0.00037  -0.00111  -0.00148   2.04850
    R4        3.96367   0.00522   0.00512   0.01582   0.02031   3.98398
    R5        5.76069   0.00323  -0.10088   0.36913   0.26855   6.02924
    R6        2.04907   0.00043  -0.00013  -0.00010  -0.00023   2.04884
    R7        2.05259  -0.00536  -0.00074  -0.00304  -0.00325   2.04934
    R8        4.95499  -0.00112  -0.17947   0.31365   0.13391   5.08889
    A1        2.12317   0.00014  -0.00048  -0.00092  -0.00139   2.12178
    A2        2.12355   0.00023  -0.00053  -0.00126  -0.00178   2.12176
    A3        2.03645  -0.00037   0.00097   0.00221   0.00319   2.03964
    A4        2.12181   0.00247  -0.00005   0.00241   0.00033   2.12214
    A5        2.12808  -0.00406  -0.00107  -0.00317  -0.00555   2.12254
    A6        1.67329  -0.00186   0.02752   0.03446   0.06162   1.73491
    A7        2.02447   0.00205   0.00226   0.01381   0.01402   2.03849
    A8        1.45541   0.00258   0.00466   0.02893   0.03375   1.48916
    A9        1.45283   0.00274   0.00489   0.02872   0.03394   1.48677
    D1        0.07757  -0.00186  -0.02559  -0.05681  -0.08233  -0.00476
    D2        3.07108   0.00205   0.01947   0.05328   0.07260  -3.13951
    D3        1.57566   0.00019  -0.00319  -0.00170  -0.00482   1.57084
    D4       -3.07129  -0.00212  -0.01940  -0.05288  -0.07221   3.13968
    D5       -0.07779   0.00179   0.02566   0.05721   0.08272   0.00494
    D6       -1.57320  -0.00007   0.00300   0.00223   0.00530  -1.56790
         Item               Value     Threshold  Converged?
 Maximum Force            0.015799     0.000450     NO 
 RMS     Force            0.004052     0.000300     NO 
 Maximum Displacement     0.163010     0.001800     NO 
 RMS     Displacement     0.054545     0.001200     NO 
 Predicted change in Energy=-1.130402D-03
 GradGradGradGradGradGradGradGradGradGradGradGradGradGradGradGradGradGrad

                          Input orientation:                          
 ---------------------------------------------------------------------
 Center     Atomic      Atomic             Coordinates (Angstroms)
 Number     Number       Type             X           Y           Z
 ---------------------------------------------------------------------
      1          6           0       -0.000575   -0.043622   -0.007213
      2          6           0       -0.002566   -0.168063    1.313673
      3          1           0        0.923764   -0.004958   -0.572205
      4          1           0       -0.923167    0.026795   -0.571981
      5          1           0        0.919933   -0.240274    1.878709
      6          1           0       -0.926874   -0.208732    1.879410
      7          1           0        0.038369    2.435369    2.000925
 ---------------------------------------------------------------------
                    Distance matrix (angstroms):
                    1          2          3          4          5
     1  C    0.000000
     2  C    1.326736   0.000000
     3  H    1.084027   2.107421   0.000000
     4  H    1.084020   2.107408   1.847205   0.000000
     5  H    2.107773   1.084198   2.462188   3.078024   0.000000
     6  H    2.108231   1.084462   3.078442   2.462683   1.847077
     7  H    3.190538   2.692926   3.655149   3.653167   2.819780
                    6          7
     6  H    0.000000
     7  H    2.817398   0.000000
 Symmetry turned off by external request.
 Stoichiometry    C2H5(2)
 Framework group  C1[X(C2H5)]
 Deg. of freedom    15
 Full point group                 C1      NOp   1
 Rotational constants (GHZ):     52.5608180     22.9863722     20.4408828
 Standard basis: 6-311+G(d,p) (5D, 7F)
 Integral buffers will be    131072 words long.
 Raffenetti 2 integral format.
 Two-electron integral symmetry is turned off.
    74 basis functions,   112 primitive gaussians,    76 cartesian basis functions
     9 alpha electrons        8 beta electrons
       nuclear repulsion energy        36.2845455189 Hartrees.
 NAtoms=    7 NActive=    7 NUniq=    7 SFac= 7.50D-01 NAtFMM=   80 NAOKFM=F Big=F
 One-electron integrals computed using PRISM.
 NBasis=    74 RedAO= T  NBF=    74
 NBsUse=    74 1.00D-06 NBFU=    74
 Initial guess read from the read-write file.
 B after Tr=     0.000000    0.000000    0.000000
         Rot=    1.000000    0.000000    0.000000    0.000000 Ang=   0.00 deg.
 Initial guess <Sx>= 0.0000 <Sy>= 0.0000 <Sz>= 0.5000 <S**2>= 0.7518 S= 0.5009
 Harris functional with IExCor= 1009 diagonalized for initial guess.
 ExpMin= 4.38D-02 ExpMax= 4.56D+03 ExpMxC= 6.82D+02 IAcc=3 IRadAn=         5 AccDes= 0.00D+00
 HarFok:  IExCor= 1009 AccDes= 0.00D+00 IRadAn=         5 IDoV= 1
 ScaDFX=  1.000000  1.000000  1.000000  1.000000
 FoFCou: FMM=F IPFlag=           0 FMFlag=      100000 FMFlg1=           0
         NFxFlg=           0 DoJE=T BraDBF=F KetDBF=T FulRan=T
         Omega=  0.000000  0.000000  1.000000  0.000000  0.000000 ICntrl=     500 IOpCl=  0
         NMat0=    1 NMatS0=    1 NMatT0=    0 NMatD0=    1 NMtDS0=    0 NMtDT0=    0
         I1Cent=           4 NGrid=           0.
 Symmetry not used in FoFCou.
 Keep R1 and R2 ints in memory in canonical form, NReq=9678927.
 Gradient too large for Newton-Raphson -- use scaled steepest descent instead.
 Gradient too large for Newton-Raphson -- use scaled steepest descent instead.
 LinEq1:  Iter=  0 NonCon=     1 RMS=6.92D-04 Max=1.83D-02
 AX will form     1 AO Fock derivatives at one time.
 LinEq1:  Iter=  1 NonCon=     1 RMS=4.14D-03 Max=7.26D-02
 LinEq1:  Iter=  2 NonCon=     1 RMS=1.35D-02 Max=2.86D-01
 LinEq1:  Iter=  3 NonCon=     1 RMS=2.05D-02 Max=4.08D-01
 LinEq1:  Iter=  4 NonCon=     1 RMS=7.64D-02 Max=1.79D+00
 LinEq1:  Iter=  5 NonCon=     1 RMS=6.85D-02 Max=9.25D-01
 LinEq1:  Iter=  6 NonCon=     1 RMS=2.50D-02 Max=3.24D-01
 LinEq1:  Iter=  7 NonCon=     1 RMS=1.29D-02 Max=2.30D-01
 LinEq1:  Iter=  8 NonCon=     1 RMS=3.71D-02 Max=1.06D+00
 LinEq1:  Iter=  9 NonCon=     1 RMS=2.72D-02 Max=2.97D-01
 LinEq1:  Iter= 10 NonCon=     1 RMS=1.23D-02 Max=1.52D-01
 LinEq1:  Iter= 11 NonCon=     1 RMS=6.53D-03 Max=9.07D-02
 LinEq1:  Iter= 12 NonCon=     1 RMS=2.99D-03 Max=3.71D-02
 LinEq1:  Iter= 13 NonCon=     1 RMS=9.87D-04 Max=9.93D-03
 LinEq1:  Iter= 14 NonCon=     1 RMS=3.10D-04 Max=3.54D-03
 LinEq1:  Iter= 15 NonCon=     1 RMS=6.47D-05 Max=7.37D-04
 LinEq1:  Iter= 16 NonCon=     1 RMS=2.50D-05 Max=7.36D-04
 LinEq1:  Iter= 17 NonCon=     1 RMS=9.56D-06 Max=9.91D-05
 LinEq1:  Iter= 18 NonCon=     1 RMS=1.36D-06 Max=1.38D-05
 LinEq1:  Iter= 19 NonCon=     1 RMS=3.08D-07 Max=2.68D-06
 LinEq1:  Iter= 20 NonCon=     1 RMS=6.25D-08 Max=4.67D-07
 LinEq1:  Iter= 21 NonCon=     1 RMS=1.08D-08 Max=7.69D-08
 LinEq1:  Iter= 22 NonCon=     0 RMS=2.61D-09 Max=2.26D-08
 Linear equations converged to 3.336D-09 3.336D-08 after    22 iterations.
 LinEq1:  Iter=  0 NonCon=     1 RMS=3.17D-04 Max=9.43D-03
 LinEq1:  Iter=  1 NonCon=     1 RMS=2.48D-03 Max=5.36D-02
 LinEq1:  Iter=  2 NonCon=     1 RMS=5.95D-03 Max=1.36D-01
 LinEq1:  Iter=  3 NonCon=     1 RMS=4.13D-03 Max=5.55D-02
 LinEq1:  Iter=  4 NonCon=     1 RMS=7.20D-03 Max=1.31D-01
 LinEq1:  Iter=  5 NonCon=     1 RMS=7.95D-03 Max=7.62D-02
 LinEq1:  Iter=  6 NonCon=     1 RMS=2.39D-03 Max=2.84D-02
 LinEq1:  Iter=  7 NonCon=     1 RMS=9.38D-04 Max=1.17D-02
 LinEq1:  Iter=  8 NonCon=     1 RMS=7.10D-04 Max=1.23D-02
 LinEq1:  Iter=  9 NonCon=     1 RMS=1.56D-03 Max=2.37D-02
 LinEq1:  Iter= 10 NonCon=     1 RMS=1.37D-03 Max=2.01D-02
 LinEq1:  Iter= 11 NonCon=     1 RMS=4.25D-04 Max=3.90D-03
 LinEq1:  Iter= 12 NonCon=     1 RMS=1.09D-04 Max=1.64D-03
 LinEq1:  Iter= 13 NonCon=     1 RMS=3.30D-05 Max=3.37D-04
 LinEq1:  Iter= 14 NonCon=     1 RMS=9.69D-06 Max=1.09D-04
 LinEq1:  Iter= 15 NonCon=     1 RMS=1.28D-06 Max=9.20D-06
 LinEq1:  Iter= 16 NonCon=     1 RMS=1.87D-07 Max=1.54D-06
 LinEq1:  Iter= 17 NonCon=     1 RMS=4.78D-08 Max=3.75D-07
 LinEq1:  Iter= 18 NonCon=     1 RMS=9.57D-09 Max=8.10D-08
 LinEq1:  Iter= 19 NonCon=     0 RMS=2.19D-09 Max=1.43D-08
 Linear equations converged to 3.336D-09 3.336D-08 after    19 iterations.
 LinEq1:  Iter=  0 NonCon=     1 RMS=7.74D-05 Max=2.03D-03
 LinEq1:  Iter=  1 NonCon=     1 RMS=3.38D-04 Max=8.44D-03
 LinEq1:  Iter=  2 NonCon=     1 RMS=5.99D-04 Max=8.15D-03
 LinEq1:  Iter=  3 NonCon=     1 RMS=4.61D-04 Max=3.60D-03
 LinEq1:  Iter=  4 NonCon=     1 RMS=6.01D-04 Max=8.65D-03
 LinEq1:  Iter=  5 NonCon=     1 RMS=6.71D-04 Max=9.46D-03
 LinEq1:  Iter=  6 NonCon=     1 RMS=2.19D-04 Max=1.83D-03
 LinEq1:  Iter=  7 NonCon=     1 RMS=7.90D-05 Max=1.28D-03
 LinEq1:  Iter=  8 NonCon=     1 RMS=4.28D-05 Max=6.88D-04
 LinEq1:  Iter=  9 NonCon=     1 RMS=5.88D-05 Max=1.47D-03
 LinEq1:  Iter= 10 NonCon=     1 RMS=9.41D-05 Max=1.31D-03
 LinEq1:  Iter= 11 NonCon=     1 RMS=3.97D-05 Max=3.81D-04
 LinEq1:  Iter= 12 NonCon=     1 RMS=9.19D-06 Max=1.10D-04
 LinEq1:  Iter= 13 NonCon=     1 RMS=2.72D-06 Max=2.11D-05
 LinEq1:  Iter= 14 NonCon=     1 RMS=3.78D-07 Max=4.70D-06
 LinEq1:  Iter= 15 NonCon=     1 RMS=5.42D-08 Max=5.17D-07
 LinEq1:  Iter= 16 NonCon=     1 RMS=1.10D-08 Max=8.93D-08
 LinEq1:  Iter= 17 NonCon=     0 RMS=2.09D-09 Max=1.48D-08
 Linear equations converged to 3.336D-09 3.336D-08 after    17 iterations.
 LinEq1:  Iter=  0 NonCon=     1 RMS=5.51D-06 Max=1.17D-04
 LinEq1:  Iter=  1 NonCon=     1 RMS=2.69D-05 Max=4.95D-04
 LinEq1:  Iter=  2 NonCon=     1 RMS=5.66D-05 Max=1.01D-03
 LinEq1:  Iter=  3 NonCon=     1 RMS=3.71D-05 Max=5.44D-04
 LinEq1:  Iter=  4 NonCon=     1 RMS=5.26D-05 Max=7.42D-04
 LinEq1:  Iter=  5 NonCon=     1 RMS=5.98D-05 Max=5.66D-04
 LinEq1:  Iter=  6 NonCon=     1 RMS=1.77D-05 Max=1.44D-04
 LinEq1:  Iter=  7 NonCon=     1 RMS=6.89D-06 Max=8.24D-05
 LinEq1:  Iter=  8 NonCon=     1 RMS=4.11D-06 Max=7.25D-05
 LinEq1:  Iter=  9 NonCon=     1 RMS=4.02D-06 Max=9.37D-05
 LinEq1:  Iter= 10 NonCon=     1 RMS=8.27D-06 Max=1.19D-04
 LinEq1:  Iter= 11 NonCon=     1 RMS=3.78D-06 Max=4.28D-05
 LinEq1:  Iter= 12 NonCon=     1 RMS=1.54D-06 Max=1.63D-05
 LinEq1:  Iter= 13 NonCon=     1 RMS=3.22D-07 Max=3.33D-06
 LinEq1:  Iter= 14 NonCon=     1 RMS=6.10D-08 Max=4.84D-07
 LinEq1:  Iter= 15 NonCon=     1 RMS=6.68D-09 Max=5.41D-08
 LinEq1:  Iter= 16 NonCon=     1 RMS=1.19D-09 Max=9.69D-09
 LinEq1:  Iter= 17 NonCon=     0 RMS=2.80D-10 Max=1.96D-09
 Linear equations converged to 7.171D-10 7.171D-09 after    17 iterations.
 LinEq1:  Iter=  0 NonCon=     1 RMS=1.33D-07 Max=4.02D-06
 LinEq1:  Iter=  1 NonCon=     1 RMS=3.03D-07 Max=7.37D-06
 LinEq1:  Iter=  2 NonCon=     1 RMS=2.75D-07 Max=3.52D-06
 LinEq1:  Iter=  3 NonCon=     1 RMS=2.42D-07 Max=3.20D-06
 LinEq1:  Iter=  4 NonCon=     1 RMS=3.02D-07 Max=4.69D-06
 LinEq1:  Iter=  5 NonCon=     1 RMS=5.17D-07 Max=7.51D-06
 LinEq1:  Iter=  6 NonCon=     1 RMS=1.12D-07 Max=1.37D-06
 LinEq1:  Iter=  7 NonCon=     1 RMS=6.91D-08 Max=8.11D-07
 LinEq1:  Iter=  8 NonCon=     1 RMS=3.18D-08 Max=4.96D-07
 LinEq1:  Iter=  9 NonCon=     1 RMS=6.65D-08 Max=1.49D-06
 LinEq1:  Iter= 10 NonCon=     1 RMS=6.53D-08 Max=8.85D-07
 LinEq1:  Iter= 11 NonCon=     1 RMS=2.23D-08 Max=2.68D-07
 LinEq1:  Iter= 12 NonCon=     1 RMS=2.00D-09 Max=1.64D-08
 LinEq1:  Iter= 13 NonCon=     1 RMS=5.79D-10 Max=5.08D-09
 LinEq1:  Iter= 14 NonCon=     1 RMS=1.29D-10 Max=7.64D-10
 LinEq1:  Iter= 15 NonCon=     1 RMS=2.03D-11 Max=1.43D-10
 LinEq1:  Iter= 16 NonCon=     0 RMS=4.22D-12 Max=3.00D-11
 Linear equations converged to 1.124D-11 1.124D-10 after    16 iterations.
 Density matrix is not symmetric, so final MOs not symmetrized.
 SCF Done:  E(UM062X) =  -79.0598373694     a.u. after    8 cycles
            Convg  =    0.1087D-09                   116 Fock formations.
              S**2 =  0.7516                  -V/T =  2.0045
 <Sx>= 0.0000 <Sy>= 0.0000 <Sz>= 0.5000 <S**2>= 0.7516 S= 0.5008
 <L.S>=  0.00000000000    
 Annihilation of the first spin contaminant:
 S**2 before annihilation     0.7516,   after     0.7500
 Range of M.O.s used for correlation:     1    74
 NBasis=    74 NAE=     9 NBE=     8 NFC=     0 NFV=     0
 NROrb=     74 NOA=     9 NOB=     8 NVA=    65 NVB=    66

 **** Warning!!: The largest alpha MO coefficient is  0.46506002D+02


 **** Warning!!: The largest beta MO coefficient is  0.39949746D+02

 Symmetrizing basis deriv contribution to polar:
 IMax=3 JMax=2 DiffMx= 0.00D+00
 G2DrvN: will do     8 centers at a time, making    1 passes doing MaxLOS=2.
 Calling FoFCou, ICntrl=  3107 FMM=F I1Cent=   0 AccDes= 0.00D+00.
 FoFDir/FoFCou used for L=0 through L=2.
 End of G2Drv Frequency-dependent properties file   721 does not exist.
 End of G2Drv Frequency-dependent properties file   722 does not exist.
          IDoAtm=1111111
          Differentiating once with respect to electric field.
                with respect to dipole field.
          Differentiating once with respect to nuclear coordinates.
          Keep R1 and R2 ints in memory in canonical form, NReq=9387419.
          There are    24 degrees of freedom in the 1st order CPHF.  IDoFFX=5.
     21 vectors produced by pass  0 Test12= 4.64D-15 4.17D-09 XBig12= 4.56D+01 3.22D+00.
 AX will form    21 AO Fock derivatives at one time.
     21 vectors produced by pass  1 Test12= 4.64D-15 4.17D-09 XBig12= 3.18D+01 3.59D+00.
     21 vectors produced by pass  2 Test12= 4.64D-15 4.17D-09 XBig12= 3.12D+01 2.03D+00.
     21 vectors produced by pass  3 Test12= 4.64D-15 4.17D-09 XBig12= 1.10D+00 3.29D-01.
     21 vectors produced by pass  4 Test12= 4.64D-15 4.17D-09 XBig12= 7.46D-03 2.12D-02.
     21 vectors produced by pass  5 Test12= 4.64D-15 4.17D-09 XBig12= 2.78D-05 1.34D-03.
     15 vectors produced by pass  6 Test12= 4.64D-15 4.17D-09 XBig12= 1.07D-07 7.42D-05.
      6 vectors produced by pass  7 Test12= 4.64D-15 4.17D-09 XBig12= 4.10D-10 3.54D-06.
      3 vectors produced by pass  8 Test12= 4.64D-15 4.17D-09 XBig12= 2.42D-12 2.56D-07.
      2 vectors produced by pass  9 Test12= 4.64D-15 4.17D-09 XBig12= 1.28D-14 2.02D-08.
 Inverted reduced A of dimension   152 with in-core refinement.
 Isotropic polarizability for W=    0.000000       27.55 Bohr**3.
 End of Minotr Frequency-dependent properties file   721 does not exist.
 End of Minotr Frequency-dependent properties file   722 does not exist.
 Calling FoFJK, ICntrl=    100127 FMM=F ISym2X=0 I1Cent= 0 IOpClX= 1 NMat=1 NMatS=1 NMatT=0.
 -------------------------------------------------------------------
 Center     Atomic                   Forces (Hartrees/Bohr)
 Number     Number              X              Y              Z
 -------------------------------------------------------------------
      1        6          -0.000033561   -0.000530988   -0.000079741
      2        6          -0.000131771   -0.000907787   -0.000614806
      3        1           0.000024598    0.000020012   -0.000013803
      4        1          -0.000028316    0.000012799   -0.000021435
      5        1           0.000044377    0.000151421    0.000113545
      6        1           0.000105999    0.000162947   -0.000006406
      7        1           0.000018673    0.001091596    0.000622646
 -------------------------------------------------------------------
 Cartesian Forces:  Max     0.001091596 RMS     0.000388325

 GradGradGradGradGradGradGradGradGradGradGradGradGradGradGradGradGradGrad
 Berny optimization.
 Using GEDIIS/GDIIS optimizer.
 Internal  Forces:  Max     0.000660407 RMS     0.000205142
 Search for a local minimum.
 Step number   4 out of a maximum of   33
 All quantities printed in internal units (Hartrees-Bohrs-Radians)
 Mixed Optimization -- En-DIIS/RFO-DIIS
 Second derivative matrix not updated -- analytic derivatives used.
 DE= -1.14D-03 DEPred=-1.13D-03 R= 1.01D+00
 SS=  1.41D+00  RLast= 3.49D-01 DXNew= 8.4853D-01 1.0479D+00
 Trust test= 1.01D+00 RLast= 3.49D-01 DXMaxT set to 8.49D-01
 Use linear search instead of GDIIS.
     Eigenvalues ---    0.00092   0.00095   0.00124   0.02588   0.02724
     Eigenvalues ---    0.03539   0.05879   0.10351   0.10838   0.13065
     Eigenvalues ---    0.25639   0.36301   0.36387   0.36548   0.51633
     Eigenvalues --- 1000.000001000.000001000.000001000.000001000.00000
     Eigenvalues --- 1000.000001000.000001000.00000
 RFO step:  Lambda=-5.55161075D-04 EMin= 9.23995135D-04
 Quintic linear search produced a step of  0.12016.
 Iteration  1 RMS(Cart)=  0.04215269 RMS(Int)=  0.06963484
 Iteration  2 RMS(Cart)=  0.04006839 RMS(Int)=  0.01131775
 Iteration  3 RMS(Cart)=  0.01139706 RMS(Int)=  0.00027835
 Iteration  4 RMS(Cart)=  0.00004789 RMS(Int)=  0.00027629
 Iteration  5 RMS(Cart)=  0.00000001 RMS(Int)=  0.00027629
 Variable       Old X    -DE/DX   Delta X   Delta X   Delta X     New X
                                 (Linear)    (Quad)   (Total)
    R1        2.50717  -0.00020   0.00389  -0.00563  -0.00183   2.50534
    R2        2.04851   0.00003  -0.00017   0.00032   0.00014   2.04866
    R3        2.04850   0.00004  -0.00018   0.00033   0.00016   2.04866
    R4        3.98398  -0.00011   0.00244  -0.00383  -0.00159   3.98239
    R5        6.02924   0.00066   0.03227   0.44381   0.47656   6.50580
    R6        2.04884   0.00009  -0.00003   0.00027   0.00024   2.04908
    R7        2.04934  -0.00001  -0.00039   0.00015  -0.00008   2.04926
    R8        5.08889   0.00061   0.01609   0.37695   0.39259   5.48148
    A1        2.12178  -0.00000  -0.00017   0.00034   0.00017   2.12195
    A2        2.12176   0.00001  -0.00021   0.00039   0.00018   2.12194
    A3        2.03964  -0.00000   0.00038  -0.00073  -0.00035   2.03929
    A4        2.12214   0.00002   0.00004   0.00070   0.00029   2.12243
    A5        2.12254   0.00008  -0.00067   0.00100   0.00011   2.12265
    A6        1.73491   0.00010   0.00740   0.04941   0.05619   1.79110
    A7        2.03849  -0.00009   0.00168  -0.00156  -0.00039   2.03810
    A8        1.48916  -0.00013   0.00406  -0.03547  -0.03108   1.45808
    A9        1.48677  -0.00013   0.00408  -0.03847  -0.03402   1.45275
    D1       -0.00476   0.00008  -0.00989   0.01491   0.00516   0.00040
    D2       -3.13951  -0.00010   0.00872  -0.01164  -0.00307   3.14060
    D3        1.57084  -0.00001  -0.00058   0.00339   0.00282   1.57366
    D4        3.13968   0.00009  -0.00868   0.01146   0.00293  -3.14057
    D5        0.00494  -0.00008   0.00994  -0.01509  -0.00531  -0.00037
    D6       -1.56790   0.00000   0.00064  -0.00006   0.00059  -1.56731
         Item               Value     Threshold  Converged?
 Maximum Force            0.000660     0.000450     NO 
 RMS     Force            0.000205     0.000300     YES
 Maximum Displacement     0.294610     0.001800     NO 
 RMS     Displacement     0.090641     0.001200     NO 
 Predicted change in Energy=-3.880498D-04
 GradGradGradGradGradGradGradGradGradGradGradGradGradGradGradGradGradGrad

                          Input orientation:                          
 ---------------------------------------------------------------------
 Center     Atomic      Atomic             Coordinates (Angstroms)
 Number     Number       Type             X           Y           Z
 ---------------------------------------------------------------------
      1          6           0       -0.001071   -0.082597   -0.030616
      2          6           0       -0.002450   -0.182903    1.291351
      3          1           0        0.922941   -0.056177   -0.596993
      4          1           0       -0.923896   -0.022543   -0.596358
      5          1           0        0.920306   -0.242059    1.857731
      6          1           0       -0.926320   -0.208477    1.858608
      7          1           0        0.039375    2.591270    2.137595
 ---------------------------------------------------------------------
                    Distance matrix (angstroms):
                    1          2          3          4          5
     1  C    0.000000
     2  C    1.325768   0.000000
     3  H    1.084103   2.106716   0.000000
     4  H    1.084102   2.106710   1.847144   0.000000
     5  H    2.107182   1.084326   2.461754   3.077633   0.000000
     6  H    2.107392   1.084422   3.077814   2.461999   1.846931
     7  H    3.442724   2.900675   3.907383   3.903129   2.980288
                    6          7
     6  H    0.000000
     7  H    2.974725   0.000000
 Symmetry turned off by external request.
 Stoichiometry    C2H5(2)
 Framework group  C1[X(C2H5)]
 Deg. of freedom    15
 Full point group                 C1      NOp   1
 Rotational constants (GHZ):     49.8776787     22.1382781     19.3748299
 Standard basis: 6-311+G(d,p) (5D, 7F)
 Integral buffers will be    131072 words long.
 Raffenetti 2 integral format.
 Two-electron integral symmetry is turned off.
    74 basis functions,   112 primitive gaussians,    76 cartesian basis functions
     9 alpha electrons        8 beta electrons
       nuclear repulsion energy        36.1005716659 Hartrees.
 NAtoms=    7 NActive=    7 NUniq=    7 SFac= 7.50D-01 NAtFMM=   80 NAOKFM=F Big=F
 One-electron integrals computed using PRISM.
 NBasis=    74 RedAO= T  NBF=    74
 NBsUse=    74 1.00D-06 NBFU=    74
 Initial guess read from the read-write file.
 B after Tr=     0.000000    0.000000    0.000000
         Rot=    1.000000    0.000000    0.000000    0.000000 Ang=   0.00 deg.
 Initial guess <Sx>= 0.0000 <Sy>= 0.0000 <Sz>= 0.5000 <S**2>= 0.7516 S= 0.5008
 Harris functional with IExCor= 1009 diagonalized for initial guess.
 ExpMin= 4.38D-02 ExpMax= 4.56D+03 ExpMxC= 6.82D+02 IAcc=3 IRadAn=         5 AccDes= 0.00D+00
 HarFok:  IExCor= 1009 AccDes= 0.00D+00 IRadAn=         5 IDoV= 1
 ScaDFX=  1.000000  1.000000  1.000000  1.000000
 FoFCou: FMM=F IPFlag=           0 FMFlag=      100000 FMFlg1=           0
         NFxFlg=           0 DoJE=T BraDBF=F KetDBF=T FulRan=T
         Omega=  0.000000  0.000000  1.000000  0.000000  0.000000 ICntrl=     500 IOpCl=  0
         NMat0=    1 NMatS0=    1 NMatT0=    0 NMatD0=    1 NMtDS0=    0 NMtDT0=    0
         I1Cent=           4 NGrid=           0.
 Symmetry not used in FoFCou.
 Keep R1 and R2 ints in memory in canonical form, NReq=9678927.
 Gradient too large for Newton-Raphson -- use scaled steepest descent instead.
 Gradient too large for Newton-Raphson -- use scaled steepest descent instead.
 Gradient too large for Newton-Raphson -- use scaled steepest descent instead.
 Gradient too large for Newton-Raphson -- use scaled steepest descent instead.
 LinEq1:  Iter=  0 NonCon=     1 RMS=9.38D-04 Max=1.57D-02
 AX will form     1 AO Fock derivatives at one time.
 LinEq1:  Iter=  1 NonCon=     1 RMS=2.75D-02 Max=7.79D-01
 LinEq1:  Iter=  2 NonCon=     1 RMS=1.06D+00 Max=2.14D+01
 LinEq1:  Iter=  3 NonCon=     1 RMS=6.58D+00 Max=1.44D+02
 LinEq1:  Iter=  4 NonCon=     1 RMS=1.53D+01 Max=3.23D+02
 LinEq1:  Iter=  5 NonCon=     1 RMS=6.83D+01 Max=2.06D+03
 LinEq1:  Iter=  6 NonCon=     1 RMS=5.68D+02 Max=8.82D+03
 LinEq1:  Iter=  7 NonCon=     1 RMS=6.18D+02 Max=1.10D+04
 LinEq1:  Iter=  8 NonCon=     1 RMS=4.27D+02 Max=7.28D+03
 LinEq1:  Iter=  9 NonCon=     1 RMS=2.23D+02 Max=3.79D+03
 LinEq1:  Iter= 10 NonCon=     1 RMS=1.34D+02 Max=2.11D+03
 LinEq1:  Iter= 11 NonCon=     1 RMS=6.76D+01 Max=8.82D+02
 LinEq1:  Iter= 12 NonCon=     1 RMS=3.90D+01 Max=7.07D+02
 LinEq1:  Iter= 13 NonCon=     1 RMS=2.81D+01 Max=4.44D+02
 LinEq1:  Iter= 14 NonCon=     1 RMS=1.28D+01 Max=2.09D+02
 LinEq1:  Iter= 15 NonCon=     1 RMS=4.90D+00 Max=4.94D+01
 LinEq1:  Iter= 16 NonCon=     1 RMS=2.54D+00 Max=4.48D+01
 LinEq1:  Iter= 17 NonCon=     1 RMS=1.76D+00 Max=3.70D+01
 LinEq1:  Iter= 18 NonCon=     1 RMS=6.64D-01 Max=1.10D+01
[...]
          Condensed to atoms (all electrons):
              1          2          3          4          5          6
     1  C    4.869255   0.675218   0.406119   0.406423  -0.029557  -0.030065
     2  C    0.675218   4.868336  -0.030158  -0.030476   0.405351   0.405987
     3  H    0.406119  -0.030158   0.508287  -0.029247  -0.008691   0.005705
     4  H    0.406423  -0.030476  -0.029247   0.508298   0.005716  -0.008670
     5  H   -0.029557   0.405351  -0.008691   0.005716   0.508633  -0.029198
     6  H   -0.030065   0.405987   0.005705  -0.008670  -0.029198   0.508336
     7  H   -0.000109   0.000677  -0.000000  -0.000000  -0.000019  -0.000008
              7
     1  C   -0.000109
     2  C    0.000677
     3  H   -0.000000
     4  H   -0.000000
     5  H   -0.000019
     6  H   -0.000008
     7  H    0.998859
 Mulliken atomic charges:
              1
     1  C   -0.297285
     2  C   -0.294935
     3  H    0.147985
     4  H    0.147956
     5  H    0.147765
     6  H    0.147913
     7  H    0.000600
 Sum of Mulliken atomic charges =   0.00000
 Mulliken charges with hydrogens summed into heavy atoms:
              1
     1  C   -0.001344
     2  C    0.001344
 Sum of Mulliken charges with hydrogens summed into heavy atoms =   0.00000
          Atomic-Atomic Spin Densities.
              1          2          3          4          5          6
     1  C   -0.000389  -0.000124   0.000029  -0.000114  -0.000242   0.000059
     2  C   -0.000124   0.001106  -0.000033   0.000113   0.000270  -0.000093
     3  H    0.000029  -0.000033  -0.000048   0.000032   0.000036  -0.000009
     4  H   -0.000114   0.000113   0.000032  -0.000035  -0.000016   0.000018
     5  H   -0.000242   0.000270   0.000036  -0.000016  -0.000408   0.000076
     6  H    0.000059  -0.000093  -0.000009   0.000018   0.000076  -0.000195
     7  H   -0.000104   0.000686  -0.000000  -0.000000  -0.000019  -0.000008
              7
     1  C   -0.000104
     2  C    0.000686
     3  H   -0.000000
     4  H   -0.000000
     5  H   -0.000019
     6  H   -0.000008
     7  H    0.998856
 Mulliken atomic spin densities:
              1
     1  C   -0.000885
     2  C    0.001925
     3  H    0.000006
     4  H   -0.000001
     5  H   -0.000304
     6  H   -0.000152
     7  H    0.999411
 Sum of Mulliken atomic spin densities =   1.00000
 APT atomic charges:
              1
     1  C   -0.094782
     2  C   -0.094242
     3  H    0.047324
     4  H    0.047293
     5  H    0.047254
     6  H    0.047459
     7  H   -0.000307
 Sum of APT charges=   0.00000
 APT Atomic charges with hydrogens summed into heavy atoms:
              1
     1  C   -0.000165
     2  C    0.000165
     3  H    0.000000
     4  H    0.000000
     5  H    0.000000
     6  H    0.000000
     7  H    0.000000
 Sum of APT charges=   0.00000
 Electronic spatial extent (au):  <R**2>=            223.8927
 Charge=              0.0000 electrons
 Dipole moment (field-independent basis, Debye):
    X=              0.0001    Y=              0.0080    Z=              0.0031  Tot=              0.0085
 Quadrupole moment (field-independent basis, Debye-Ang):
   XX=            -13.7587   YY=            -17.2220   ZZ=            -13.6639
   XY=              0.3546   XZ=              0.0056   YZ=             -0.0366
 Traceless Quadrupole moment (field-independent basis, Debye-Ang):
   XX=              1.1229   YY=             -2.3405   ZZ=              1.2176
   XY=              0.3546   XZ=              0.0056   YZ=             -0.0366
 Octapole moment (field-independent basis, Debye-Ang**2):
  XXX=              0.3139  YYY=              3.1810  ZZZ=            -30.2353  XYY=             -0.0843
  XXY=             -0.7254  XXZ=            -10.1328  XZZ=              0.1093  YZZ=             -0.7010
  YYZ=            -11.5084  XYZ=              0.1685
 Hexadecapole moment (field-independent basis, Debye-Ang**3):
 XXXX=            -29.7035 YYYY=           -224.2652 ZZZZ=           -171.3214 XXXY=             -5.7861
 XXXZ=             -2.5471 YYYX=             -6.0981 YYYZ=            -50.7071 ZZZX=             -2.1960
 ZZZY=            -53.7503 XXYY=            -42.4580 XXZZ=            -30.7868 YYZZ=            -66.5638
 XXYZ=            -18.0722 YYXZ=             -0.8576 ZZXY=             -1.5226
 N-N= 3.490710302827D+01 E-N=-3.775690879904D+02  KE= 1.178098874817D+02
  Exact polarizability:  21.646   0.363  18.507  -0.244  -0.182  34.670
 Approx polarizability:  23.036   0.379  19.710  -0.328  -0.348  40.668
                          Isotropic Fermi Contact Couplings
        Atom                 a.u.       MegaHertz       Gauss      10(-4) cm-1
     1  C(13)             -0.00001      -0.01057      -0.00377      -0.00353
     2  C(13)             -0.00001      -0.01473      -0.00526      -0.00491
     3  H(1)               0.00000       0.00670       0.00239       0.00223
     4  H(1)               0.00000       0.00696       0.00248       0.00232
     5  H(1)              -0.00001      -0.05437      -0.01940      -0.01814
     6  H(1)              -0.00000      -0.01817      -0.00648      -0.00606
     7  H(1)               0.29845    1334.02793     476.01432     444.98382
 --------------------------------------------------------
       Center         ----  Spin Dipole Couplings  ----
                      3XX-RR        3YY-RR        3ZZ-RR
 --------------------------------------------------------
     1   Atom       -0.000566      0.000557      0.000009
     2   Atom       -0.000799      0.001257     -0.000458
     3   Atom       -0.000555      0.000477      0.000077
     4   Atom       -0.000464      0.000425      0.000038
     5   Atom       -0.000971      0.001744     -0.000773
     6   Atom       -0.000734      0.001403     -0.000669
     7   Atom       -0.000016      0.000027     -0.000011
 --------------------------------------------------------
                        XY            XZ            YZ
 --------------------------------------------------------
     1   Atom        0.000093      0.000046      0.000904
     2   Atom        0.000135      0.000050      0.000869
     3   Atom       -0.000138     -0.000097      0.000822
     4   Atom        0.000213      0.000153      0.000713
     5   Atom       -0.000327     -0.000111      0.000797
     6   Atom        0.000530      0.000164      0.000651
     7   Atom        0.000002      0.000001      0.000016
 --------------------------------------------------------


 ---------------------------------------------------------------------------------
              Anisotropic Spin Dipole Couplings in Principal Axis System
 ---------------------------------------------------------------------------------

       Atom             a.u.   MegaHertz   Gauss  10(-4) cm-1        Axes

              Baa    -0.0007    -0.089    -0.032    -0.030  0.1907 -0.5932  0.7822
     1 C(13)  Bbb    -0.0006    -0.076    -0.027    -0.025  0.9800  0.0690 -0.1866
              Bcc     0.0012     0.166     0.059     0.055  0.0568  0.8021  0.5945
 
              Baa    -0.0008    -0.111    -0.039    -0.037  0.3508 -0.3803  0.8558
     2 C(13)  Bbb    -0.0008    -0.108    -0.039    -0.036  0.9346  0.0846 -0.3455
              Bcc     0.0016     0.219     0.078     0.073  0.0590  0.9210  0.3851
 
              Baa    -0.0006    -0.309    -0.110    -0.103  0.7627  0.4560 -0.4586
     3 H(1)   Bbb    -0.0006    -0.299    -0.107    -0.100  0.6392 -0.4234  0.6420
              Bcc     0.0011     0.608     0.217     0.203 -0.0986  0.7828  0.6144
 
              Baa    -0.0005    -0.275    -0.098    -0.092  0.7646 -0.4899  0.4188
     4 H(1)   Bbb    -0.0005    -0.267    -0.095    -0.089 -0.6205 -0.3838  0.6839
              Bcc     0.0010     0.542     0.194     0.181  0.1743  0.7827  0.5974
 
              Baa    -0.0010    -0.546    -0.195    -0.182  0.7660 -0.0927  0.6361
     5 H(1)   Bbb    -0.0010    -0.529    -0.189    -0.176 -0.6324 -0.2855  0.7201
              Bcc     0.0020     1.075     0.384     0.359 -0.1149  0.9539  0.2774
 
              Baa    -0.0009    -0.464    -0.165    -0.155  0.7416  0.0191 -0.6705
     6 H(1)   Bbb    -0.0008    -0.452    -0.161    -0.151  0.6334 -0.3491  0.6906
              Bcc     0.0017     0.916     0.327     0.305  0.2209  0.9369  0.2710
 
              Baa    -0.0000    -0.009    -0.003    -0.003 -0.0220 -0.3501  0.9365
     7 H(1)   Bbb    -0.0000    -0.009    -0.003    -0.003  0.9983 -0.0577  0.0019
              Bcc     0.0000     0.018     0.006     0.006  0.0533  0.9349  0.3508
 

 ---------------------------------------------------------------------------------

 Full mass-weighted force constant matrix:
 Low frequencies ---   -5.8153   -4.5331   -0.0007   -0.0004   -0.0003   16.6750
 Low frequencies ---   25.9070   33.2159   62.5258
 Diagonal vibrational polarizability:
        0.1029524       3.3717950       0.1830849
 Harmonic frequencies (cm**-1), IR intensities (KM/Mole), Raman scattering
 activities (A**4/AMU), depolarization ratios for plane and unpolarized
 incident light, reduced masses (AMU), force constants (mDyne/A),
 and normal coordinates:
                     1                      2                      3
                     A                      A                      A
 Frequencies --    20.5761                32.8616                58.2691
 Red. masses --     1.5845                 1.0669                 1.0297
 Frc consts  --     0.0004                 0.0007                 0.0021
 IR Inten    --     0.0000                 0.0022                 0.0001
  Atom  AN      X      Y      Z        X      Y      Z        X      Y      Z
     1   6     0.00   0.16   0.03    -0.00  -0.00   0.01     0.02   0.00   0.00
     2   6    -0.00  -0.16   0.02     0.00   0.07   0.01    -0.04   0.00   0.00
     3   1     0.01   0.27   0.06    -0.00  -0.05   0.00    -0.00   0.47   0.05
     4   1     0.01   0.32   0.01    -0.00  -0.02   0.02     0.09  -0.46  -0.05
     5   1    -0.01  -0.32   0.05     0.01   0.09   0.00    -0.11   0.46   0.05
     6   1    -0.01  -0.27  -0.01     0.01   0.12   0.02    -0.02  -0.46  -0.05
     7   1    -0.00   0.02  -0.77    -0.07  -0.93  -0.31     0.33  -0.05  -0.03
                     4                      5                      6
                     A                      A                      A
 Frequencies --   832.1219               992.8789              1003.5030
 Red. masses --     1.0424                 1.1608                 1.5161
 Frc consts  --     0.4253                 0.6742                 0.8995
 IR Inten    --     0.9094               123.0047                 0.0142
  Atom  AN      X      Y      Z        X      Y      Z        X      Y      Z
     1   6     0.04   0.00   0.00    -0.01   0.08   0.00    -0.01   0.15   0.00
     2   6     0.04   0.00   0.00    -0.01   0.08   0.00     0.02  -0.15  -0.00
     3   1    -0.23  -0.01  -0.44     0.05  -0.50  -0.01     0.05  -0.48  -0.01
     4   1    -0.24  -0.03   0.43     0.05  -0.50  -0.01     0.05  -0.48  -0.01
     5   1    -0.24  -0.03   0.43     0.05  -0.49  -0.01    -0.05   0.49   0.01
     6   1    -0.23  -0.01  -0.44     0.05  -0.49  -0.01    -0.05   0.49   0.01
     7   1     0.00  -0.00   0.00    -0.00   0.00  -0.00    -0.00  -0.00   0.00
                     7                      8                      9
                     A                      A                      A
 Frequencies --  1067.5960              1239.9901              1385.9308
 Red. masses --     1.0078                 1.5235                 1.1903
 Frc consts  --     0.6768                 1.3801                 1.3470
 IR Inten    --     0.0036                 0.0000                 0.0000
  Atom  AN      X      Y      Z        X      Y      Z        X      Y      Z
     1   6    -0.00  -0.00  -0.00     0.15   0.02   0.00    -0.00  -0.00   0.09
     2   6    -0.00  -0.00  -0.00    -0.15  -0.01  -0.00     0.00   0.00  -0.09
     3   1    -0.05   0.50   0.01    -0.13  -0.00  -0.47     0.19   0.01   0.46
     4   1     0.05  -0.49  -0.01    -0.15  -0.02   0.46    -0.21  -0.03   0.45
     5   1     0.05  -0.50  -0.01     0.15   0.02  -0.46     0.21   0.03  -0.45
     6   1    -0.05   0.50   0.01     0.13   0.00   0.47    -0.19  -0.01  -0.46
     7   1    -0.00   0.00   0.00    -0.00   0.00  -0.00    -0.00   0.00  -0.00
                    10                     11                     12
                     A                      A                      A
 Frequencies --  1471.6198              1712.0751              3157.5808
 Red. masses --     1.1122                 3.3603                 1.0475
 Frc consts  --     1.4191                 5.8034                 6.1535
 IR Inten    --    11.8271                 0.0000                 9.1156
  Atom  AN      X      Y      Z        X      Y      Z        X      Y      Z
     1   6    -0.00  -0.00   0.07    -0.01  -0.01   0.33     0.00   0.00  -0.04
     2   6    -0.00  -0.00   0.07     0.01   0.01  -0.33     0.00   0.00  -0.04
     3   1    -0.27  -0.02  -0.42    -0.38  -0.03  -0.23    -0.44  -0.05   0.25
     4   1     0.29   0.04  -0.40     0.39   0.04  -0.21     0.42   0.04   0.26
     5   1     0.29   0.04  -0.40    -0.39  -0.04   0.21     0.42   0.04   0.26
     6   1    -0.27  -0.02  -0.42     0.38   0.03   0.23    -0.44  -0.05   0.25
     7   1     0.00   0.00   0.00     0.00   0.00   0.00     0.00  -0.00  -0.00
                    13                     14                     15
                     A                      A                      A
 Frequencies --  3174.0909              3237.0048              3262.4621
 Red. masses --     1.0752                 1.1156                 1.1180
 Frc consts  --     6.3822                 6.8875                 7.0113
 IR Inten    --     0.0001                 0.0000                14.6381
  Atom  AN      X      Y      Z        X      Y      Z        X      Y      Z
     1   6    -0.00  -0.00   0.06    -0.07  -0.01  -0.00     0.07   0.01   0.00
     2   6     0.00   0.00  -0.06     0.07   0.01   0.00     0.07   0.01   0.00
     3   1     0.44   0.05  -0.25     0.42   0.05  -0.25    -0.42  -0.05   0.25
     4   1    -0.41  -0.04  -0.26     0.42   0.04   0.28    -0.42  -0.04  -0.28
     5   1     0.42   0.04   0.26    -0.42  -0.04  -0.28    -0.42  -0.04  -0.28
     6   1    -0.44  -0.05   0.25    -0.42  -0.05   0.25    -0.42  -0.05   0.25
     7   1    -0.00   0.00  -0.00     0.00  -0.00   0.00    -0.00   0.00  -0.00

 -------------------
 - Thermochemistry -
 -------------------
 Temperature   298.150 Kelvin.  Pressure   1.00000 Atm.
 Atom     1 has atomic number  6 and mass  12.00000
 Atom     2 has atomic number  6 and mass  12.00000
 Atom     3 has atomic number  1 and mass   1.00783
 Atom     4 has atomic number  1 and mass   1.00783
 Atom     5 has atomic number  1 and mass   1.00783
 Atom     6 has atomic number  1 and mass   1.00783
 Atom     7 has atomic number  1 and mass   1.00783
 Molecular mass:    29.03913 amu.
 Principal axes and moments of inertia in atomic units:
                           1         2         3
     Eigenvalues --    52.98555 147.51153 176.76619
           X            0.04824  -0.10384   0.99342
           Y            0.72880  -0.67645  -0.10610
           Z            0.68302   0.72913   0.04304
 This molecule is an asymmetric top.
 Rotational symmetry number  1.
 Rotational temperatures (Kelvin)      1.63467     0.58717     0.48999
 Rotational constants (GHZ):          34.06100    12.23458    10.20976
 Zero-point vibrational energy     135468.5 (Joules/Mol)
                                   32.37774 (Kcal/Mol)
 Warning -- explicit consideration of   3 degrees of freedom as
           vibrations may cause significant error
 Vibrational temperatures:     29.60    47.28    83.84  1197.24  1428.53
          (Kelvin)           1443.82  1536.03  1784.07  1994.04  2117.33
                             2463.29  4543.05  4566.80  4657.32  4693.95
 
 Zero-point correction=                           0.051597 (Hartree/Particle)
 Thermal correction to Energy=                    0.057219
 Thermal correction to Enthalpy=                  0.058163
 Thermal correction to Gibbs Free Energy=         0.021807
 Sum of electronic and zero-point Energies=            -79.010109
 Sum of electronic and thermal Energies=               -79.004488
 Sum of electronic and thermal Enthalpies=             -79.003543
 Sum of electronic and thermal Free Energies=          -79.039899
 
                     E (Thermal)             CV                S
                      KCal/Mol        Cal/Mol-Kelvin    Cal/Mol-Kelvin
 Total                   35.905             13.980             76.517
 Electronic               0.000              0.000              1.377
 Translational            0.889              2.981             36.032
 Rotational               0.889              2.981             21.851
 Vibrational             34.128              8.019             17.256
 Vibration     1          0.593              1.986              6.578
 Vibration     2          0.594              1.983              5.649
 Vibration     3          0.596              1.974              4.515
                       Q            Log10(Q)             Ln(Q)
 Total Bot       0.931952D-10        -10.030606        -23.096325
 Total V=0       0.503983D+14         13.702416         31.550978
 Vib (Bot)       0.569371D-21        -21.244605        -48.917510
 Vib (Bot)    1  0.100670D+02          1.002900          2.309262
 Vib (Bot)    2  0.629938D+01          0.799298          1.840451
 Vib (Bot)    3  0.354466D+01          0.549574          1.265441
 Vib (V=0)       0.307906D+03          2.488418          5.729793
 Vib (V=0)    1  0.105794D+02          1.024461          2.358908
 Vib (V=0)    2  0.681919D+01          0.833733          1.919741
 Vib (V=0)    3  0.407975D+01          0.610633          1.406035
 Electronic      0.200000D+01          0.301030          0.693147
 Translational   0.615078D+07          6.788931         15.632090
 Rotational      0.133057D+05          4.124038          9.495948
 -------------------------------------------------------------------
 Center     Atomic                   Forces (Hartrees/Bohr)
 Number     Number              X              Y              Z
 -------------------------------------------------------------------
      1        6          -0.000023856   -0.000061819    0.000014467
      2        6           0.000036907    0.000072651   -0.000005642
      3        1           0.000015303    0.000001939    0.000012658
      4        1          -0.000023049    0.000016378   -0.000005350
      5        1           0.000024038   -0.000007076    0.000000846
      6        1          -0.000029594   -0.000029164   -0.000021129
      7        1           0.000000252    0.000007091    0.000004148
 -------------------------------------------------------------------
 Cartesian Forces:  Max     0.000072651 RMS     0.000027051
 B after Tr=     0.037964    0.577607    0.251189
         Rot=    0.999759   -0.021875   -0.001496   -0.000444 Ang=   2.51 deg.
 Final structure in terms of initial Z-matrix:
 C
 C,1,RCC1
 H,1,RCH1,2,AHCC1
 H,1,RCH2,2,AHCC2,3,B1,0
 H,2,RCH3,1,AHCC3,3,B2,0
 H,2,RCH4,1,AHCC4,5,B3,0
 H,2,RTS,1,AABS1,3,BABS1,0
      Variables:
 RCC1=1.32585489
 RCH1=1.08412674
 RCH2=1.08411563
 RCH3=1.08411886
 RCH4=1.08411259
 AHCC1=121.59770872
 AHCC2=121.58831071
 AHCC3=121.58579189
 AHCC4=121.60775713
 B1=179.96516042
 B2=0.03307105
 B3=179.94273787
 AABS1=110.62448002
 BABS1=80.54686834
 RTS=5.53347248


 EDUCATION IS NOT TRAINING BUT RATHER THE PROCESS THAT EQUIPS YOU TO
 ENTERTAIN YOURSELF, A FRIEND, OR AN IDEA.  -- WALLACE STERLING
 Error termination request processed by link 9999.
 Error termination via Lnk1e in /programs/64bit/g09/g09-gfortran/bin/l9999.exe at Thu Apr  6 04:04:53 2017.
 Job cpu time:  0 days 14 hours  1 minutes 15.8 seconds.
 File lengths (MBytes):  RWF=     12 Int=      0 D2E=      0 Chk=      2 Scr=      1
