[Molden Format]
[Molpro variables]
_NUMVAR=  1038.000000000000    
_AVOGAD= 0.6022140760000000E+24
_BOLTZ= 0.1380649000000000E-22
_CLIGHTSI=  299792458.0000000    
_JOULE= 0.4359744722207100E-17
_JPCAL=  4.184000000000000    
_PLANCK= 0.6626070150000000E-33
_BOHR= 0.5291772109030000E-10
_ECHARG= 0.1602176634000000E-18
_ENULL= 0.8854187812800001E-11
_MU= 0.1660539066600000E-26
_EMASS= 0.9109383701500001E-30
_AMU2AU=  1822.888486217313    
_CLIGHT=  29979245800.00000    
_EV= 0.3674932217565494E-01
_KJOULE= 0.3808798847133432E-03
_KJOULE/MOL= 0.3808798847133432E-03
_CM= 0.4556335252912009E-05
_CM-1= 0.4556335252912009E-05
_DEB2SI= 0.3335640951981520E-29
_KCAL= 0.1593601437640628E-02
_KCAL/MOL= 0.1593601437640628E-02
_KELVIN= 0.3166811563455608E-05
_HERTZ= 0.1519829846057038E-15
_HZ= 0.1519829846057038E-15
_TOA= 0.5291772109030000    
_TOANG= 0.5291772109030000    
_TORAD= 0.1745329251994330E-01
_TOCM=  219474.6313631965    
_TODEBYE=  2.541746473194078    
_TOE= 0.4803204712570263E-09
_TOEV=  27.21138624598803    
_TOHERTZ=  6579683920501656.    
_TOHZ=  6579683920501656.    
_TOK=  315775.0248040668    
_TOKCAL=  627.5094740630558    
_TOKELVIN=  315775.0248040668    
_TOKJ=  2625.499639479825    
_TOKJOULE=  2625.499639479825    
_TOKG= 0.1660539066600000E-26
_ANG=  1.889726124625770    
_ANGSTROM=  1.889726124625770    
_RPAREF=  0.000000000000000    
_RPADISS=  0.000000000000000    
_IGNORE_UNDEF=  2.000000000000000    
_STRICTCHECK=  0.000000000000000    
!SEWARD=  0.000000000000000    
!MULTI=  0.000000000000000    
!DFMULTI=  0.000000000000000    
_SEW_ONEEL=  0.000000000000000    
_CPPDONE=FALSE
_DKROLL_DONE=  0.000000000000000    
_FNUC_DONE=  0.000000000000000    
_FOCKDONE=  0.000000000000000    
_GRADONE=FALSE
_HESSDONE=FALSE
_INTDONE=TRUE
_SCFDONE=FALSE
_MODUL_BLOCK=FALSE
_MODUL_CUDA=FALSE
_MODUL_SLATER=FALSE
_MODUL_MRCC=TRUE
_MODUL_NBO6=FALSE
_MODUL_NECI=FALSE
_MODUL_AIMS=TRUE
_MODUL_GECCO=FALSE
_ISWINDOWS=FALSE
_MRCC_EXEC=/software/cinetica/mrcc/bin/dmrcc
_FITC_AO_SAVED=FALSE
_FITC_MO_SAVED=FALSE
_SHARED_FS=TRUE
_LSTYP=SEWARD
_INTYP=INTS
_GEOMTYP=ZMAT
_GRADTYP=ALASKA
_DIRECT=FALSE
_DKHO= -1.000000000000000    
_FNUC=  0.000000000000000    
_SYNCM=  0.000000000000000    
_BASIS=CC-PVDZ
_ZORIENT=  1.000000000000000    
!ZORIENT=  0.000000000000000    
_NELEC=  10.00000000000000    
!SPIN=  0.000000000000000    
_QSDSTEP=  0.000000000000000    
_QSDIRC=  0.000000000000000    
_PROGRAM=RS2
_CPUSTEP= 0.6999999999999995E-01
_SYSSTEP= 0.1999999999999996E-01
_WALLSTEP= 0.1900000000000000    
!DFMP2=  0.000000000000000    
!DFHFENERG=  0.000000000000000    
!SCSGRD=  0.000000000000000    
_CPUTOT= 0.6699999999999999    
_DMX= 0.8645104992898952E-04
_DMY= 0.5287551146744823E-04
_DMZ=-0.4515690817074924E-01
_EMP2= -40.19463205922342    
_ENERGR= -40.06031635166387    
_ENERGU= -40.18632297857165    
_ENERGY= -40.19463205922342    
_ENERGY_METHOD=RS2
_ENERGY_BASIS=cc-pVDZ
_GEOMETRY_METHOD=
_GEOMETRY_BASIS=
_ENERGY_AVRG= -40.06031635166390    
_ENUC=  11.06177381221426    
_GRADMETHOD=  9.000000000000000    
_NMRMETHOD=  0.000000000000000    
_NMRMAGNET=  0.000000000000000    
!GRID_FREEZE= -1.000000000000000    
!NEESE_INDEX=  0.000000000000000    
_ITERATIONS=  4.000000000000000    
_LASTNELEC=  2.000000000000000    
_LASTSPIN=  0.000000000000000    
_LASTSYM=  1.000000000000000    
_MPP_PROG=  1.000000000000000    
_MSNSTATES=  0.000000000000000    
_RS2PHASE=  0.000000000000000    
_IPROC_MPP=  0.000000000000000    
_IPROC_MPPX=  0.000000000000000    
_NPROC_MPP=  4.000000000000000    
_NPROC_MPPX=  4.000000000000000    
_NPROC_SMP=  1.000000000000000    
_NUMSTEP=  0.000000000000000    
_ORBITAL=  2140.200000000000    
_PI=  3.141592653589793    
!MCACT=  2.000000000000000    
!MCCLOSED=  4.000000000000000    
!MCFREEZE=  0.000000000000000    
!MCMS2=  0.000000000000000    
!MCNEL=  2.000000000000000    
!MCNSTSYM=  1.000000000000000    
!MCSTATE=  1.000000000000000    
!MCSYM=  1.000000000000000    
!MCWEIGHT=  1.000000000000000    
_SEIG_MIN= 0.1503517541634990E-01
_SEWPROP=TRUE
_STATUS=  1.000000000000000    
_SYSTOT= 0.3400000000000000    
_VERSION=  2022002.000000000    
_WALLTOT=  1.570000000000000    
_DATE=03-Jun-23
_LASTORB=MCSCF
_OUTPUT=/home/chimica2/cavallotti/qm/barrierless/vrc_autom/folders/ch3+h/dist_3.4/molpro.out
_PGROUP=C1
_TIME=08:59:57
_LIBMOL=/software/cinetica/molpro_2022.2/lib/
_VIGRDC=  0.000000000000000    
!VIBCNT=  0.000000000000000    
!RGHFCNT=  0.000000000000000    
!SURFREC=  0.000000000000000    
!XSURFREC=  0.000000000000000    
!XPOLYREC=  0.000000000000000    
!ROTREC=  0.000000000000000    
!POLYREC=  0.000000000000000    
!DIPREC=  0.000000000000000    
!DIP4DREC=  0.000000000000000    
!DIPROT=  0.000000000000000    
!DIP4DROT=  0.000000000000000    
!PTREC=  0.000000000000000    
!PT4DREC=  0.000000000000000    
!VSCFREC=  0.000000000000000    
!VCIREC=  0.000000000000000    
!PVCIREC=  0.000000000000000    
!VMP2REC=  0.000000000000000    
!VMCSCFREC=  0.000000000000000    
!VMRCIREC=  0.000000000000000    
!VIBSTATEREC=  0.000000000000000    
!VIBSTATECNT=  0.000000000000000    
!VIBINFO=  0.000000000000000    
!GAREC=  0.000000000000000    
!MCORB=  21402.00000000000    
!DEFCORE=  1.000000000000000    
!SCORE=  0.000000000000000    
!NEWMOL= -1.000000000000000    
!NEWSYM= -1.000000000000000    
_SLFILES=slscratch
_NGSSTO=  9.000000000000000    
_SIN=SIN
_COS=COS
_TAN=TAN
_ACOS=ACOS
_ASIN=ASIN
_ATAN=ATAN
_COSH=COSH
_SINH=SINH
_TANH=TANH
_ABS=ABS
_MOD=MOD
_ERF=ERF
_REFC=REFC
_ERFC=ERFC
_HYPOT=HYPOT
_J0=J0
_J1=J1
_JN=JN
_GAMMA=GAMMA
_LGAMMA=LGAMMA
_Y0=Y0
_Y1=Y1
_YN=YN
_EXP=EXP
_LOG=LOG
_LOG10=LOG10
_SQRT=SQRT
_INT=INT
_NINT=NINT
_MAX=MAX
_MIN=MIN
_COSMO=  0.000000000000000    
_COSMOIT=  0.000000000000000    
_COSMOES=  0.000000000000000    
_COSMOEDS=  0.000000000000000    
_COSMOEC=  0.000000000000000    
_COSMOEDCORR=  0.000000000000000    
_FEPSI=  1.000000000000000    
_SL_IsMM=  0.000000000000000    
_SL_NSYM=  1.000000000000000    
_SL_System_BitSw=  0.000000000000000    
_SL_Unique_atoms=  0.000000000000000    
_SL_GRAD=  0.000000000000000    
_SL_MAXUPD_Hess=  5.000000000000000    
_SL_N_PRINT_COD=  5.000000000000000    
_SL_PRINT_CODES=  0.000000000000000    
_SL_BasType=  0.000000000000000    
_SL_Energy_Pred=  0.000000000000000    
_SL_New_Coords=  0.000000000000000    
_SL_Total_Nuclea=  0.000000000000000    
_SL_Highest_Mltp=  0.000000000000000    
_SL_Ref_Geom=  0.000000000000000    
_SL_Symmetry_ope=  1.000000000000000    
_SL_agrad=  0.000000000000000    
_SL_GrdMax=  0.000000000000000    
_SL_GrdNorm=  0.000000000000000    
_SL_GrdRMS=  0.000000000000000    
_SL_Hss_Q=  0.000000000000000    
_SL_Hss_X=  0.000000000000000    
_SL_BMxOld=  0.000000000000000    
_SL_KtB=  0.000000000000000    
_SL_TROld=  0.000000000000000    
_SL_No_of_Intern=  0.000000000000000    
_SL_Hess=  0.000000000000000    
_SL_K=  0.000000000000000    
!LATTICE= -1.000000000000000    
!NEWLATTICE=  0.000000000000000    
!LATGRAD_VAR=FALSE
!SEW_LATTICE=  1.000000000000000    
!AIC_ONEEL=  0.000000000000000    
!LOCAL=  0.000000000000000    
!SAVEDOM= -1.000000000000000    
!RESTDOM= -1.000000000000000    
!SAVEDOM_HF= -1.000000000000000    
!RESTDOM_HF= -1.000000000000000    
!HESSREC=  0.000000000000000    
!FREQREC=  0.000000000000000    
!NMODREC=  0.000000000000000    
!GTASKS=  0.000000000000000    
!HTASKS=  0.000000000000000    
!SAVEDOM_EOM= -1.000000000000000    
!RESTDOM_EOM= -1.000000000000000    
!GRADSTATE= -1.000000000000000    
!DEBUG=  0.000000000000000    
!CFIT_CPHF=  0.000000000000000    
!RDOMAUX_CPHF=  0.000000000000000    
!THRAO_CPHF= 0.1000000000000000E-11
!THRMO_CPHF= 0.1000000000000000E-11
!THROV_CPHF= 0.1000000000000000E-11
!THRSW_CPHF= 0.1000000000000000E-11
!THRPROD_CPHF= 0.1000000000000000E-11
!THRAOPR_CPHF= 0.1000000000000000E-11
!CFIT_SCFGRD=  0.000000000000000    
!RDOMAUX_SCFGRD=  0.000000000000000    
!THRAO_SCFGRD= 0.1000000000000000E-11
!THRMO_SCFGRD= 0.1000000000000000E-11
!THROV_SCFGRD= 0.1000000000000000E-11
!THRSW_SCFGRD= 0.1000000000000000E-11
!THRPROD_SCFGRD= 0.1000000000000000E-11
!THRAOPR_SCFGRD= 0.1000000000000000E-11
!LOCFIT_SCF=  0.000000000000000    
!LOCFIT_MP2=  0.000000000000000    
_RIDOM=  0.000000000000000    
!CC2_METHOD=  0.000000000000000    
_BASIS2006=FALSE
_SVDDEL= -1.000000000000000    
_SVDDELA= -1.000000000000000    
_SVDDELP= -1.000000000000000    
_SVDDELF= -1.000000000000000    
_SVDDELS= -1.000000000000000    
_SVDDEL_ABS= -1.000000000000000    
_SVDDELA_ABS= -1.000000000000000    
_SVDDELP_ABS= -1.000000000000000    
_SVDDELF_ABS= -1.000000000000000    
_SVDDELS_ABS= -1.000000000000000    
_MAXBASIS=  0.000000000000000    
!OPT_CONICAL=  0.000000000000000    
!CLEARSP_JGRID=  0.000000000000000    
_GRDHYBR=  0.000000000000000    
_STATEGRAD=  1.000000000000000    
_4EXT_NDISKS=  1.000000000000000    
!EMBEDFLAG=  1.000000000000000    
!EMBED=FALSE
!EMBED_F12=FALSE
!EMBEDNUC=  0.000000000000000    
_EMBEDENERGY=  0.000000000000000    
!EMBED_DFC=FALSE
!NUM_VOIDS=  0.000000000000000    
_IBODY=  0.000000000000000    
_EMBE_CORR=  0.000000000000000    
!EMBED_PROJ=FALSE
!EMB_PROJ_ZMU=  1000000.000000000    
!CORRECTION_HF=  0.000000000000000    
!EMBED_AORB=  0.000000000000000    
!EMBED_NACORR=  0.000000000000000    
!EMBED_MP2=FALSE
!EMBED_TRUNC_PERTURBATION=FALSE
!EMBED_FROZEN=  0.000000000000000    
!EMBED_ACTIVE=  0.000000000000000    
_CHANGE_BASIS=FALSE
_RESTORE_BASIS=FALSE
_FIX_EMBED_GUESS=FALSE
_EMBED_SCF=FALSE
_HUZINAGA_T=FALSE
_HUZINAGA_F=FALSE
_HUZINAGA=FALSE
_HUZINAGA_CORRECT=FALSE
!FASTLATGRAD=  1.000000000000000    
!FASTVLAMBDA= -1.000000000000000    
!IFORCE= -1.000000000000000    
!USESYM= -1.000000000000000    
_SINDEX=  0.000000000000000    
_AVDOM_OSV=  0.000000000000000    
_AVDOM_PNO=  0.000000000000000    
_AVDOM_PAO=  0.000000000000000    
_AVDOM_LMO=  0.000000000000000    
_CC2OSV_FLAG=  0.000000000000000    
_EOMCCSD_CONV=FALSE
_TMADC2_FLAG=FALSE
_PROPADC2_FLAG=FALSE
_LEN_VirQ=  0.000000000000000    
_GRDCC2LR_FLAG=FALSE
_GRDADC2_FLAG=FALSE
_DMX_CC=-0.2637371616854178E-02
_DMY_CC=-0.1803999131782863E-02
_DMZ_CC=  3.252800125607899    
_DMX_NUC=-0.1823148482000009E-02
_DMY_NUC=-0.1397671196000142E-02
_DMZ_NUC=  2.376114500481000    
_RO_VGLOBAL=  0.000000000000000    
_OPT=FALSE
_FREQ=FALSE
_HESS=FALSE
_CMRCC_callName=EMPTY
_CMRCC_callCount=  0.000000000000000    
_GECCO_CIROOT=  1.000000000000000    
_SYM_CATION=  0.000000000000000    
_MON_A=FALSE
_MON_B=FALSE
R1=  1.078300000000000    
R2=  1.078300000000000    
R3=  1.078300000000000    
A2=  120.0005000000000    
A3=  120.0011000000000    
D3=  181.0647000000000    
DH1=  90.30990000000000    
ANG1=  90.12080000000000    
BB=  3.400000000000000    
GX1= 0.3081524974144727E-03
GY1= 0.2362374076252287E-03
GZ1=-0.4016160100376011    
GX2= 0.1535203544454806    
GY2=  2.032157563947421    
GZ2=-0.4046371717257299    
GX3=  1.683369372964234    
GY3= -1.148435648139895    
GZ3=-0.4083399229167286    
GX4= -1.835810761622533    
GY4=-0.8831230287316485    
GZ4=-0.4246621296205178    
GX5=-0.4751029249733682E-02
GY5=-0.3413982719453290E-02
GZ5=  6.023449784972570    
CBSEN= -40.19463205922342    
[Atoms] Angs
C     1    6         0.0001630673        0.0001250115       -0.2125260400
H     2    1         0.0812394730        1.0753714718       -0.2141247700
H     3    1         0.8908007097       -0.6077259732       -0.2160841815
H     4    1        -0.9714692186       -0.4673285812       -0.2247215213
H     5    1        -0.0025141364       -0.0018066019        3.1874723572
[GTO]
   1 0
 s    9  1.00
  0.6665000000D+04  0.6920001793D-03
  0.1000000000D+04  0.5329001381D-02
  0.2280000000D+03  0.2707700701D-01
  0.6471000000D+02  0.1017180264D+00
  0.2106000000D+02  0.2747400712D+00
  0.7495000000D+01  0.4485641162D+00
  0.2797000000D+01  0.2850740738D+00
  0.5215000000D+00  0.1520400394D-01
  0.1596000000D+00 -0.3191000827D-02
 s    9  1.00
  0.6665000000D+04 -0.1460000642D-03
  0.1000000000D+04 -0.1154000508D-02
  0.2280000000D+03 -0.5725002519D-02
  0.6471000000D+02 -0.2331201026D-01
  0.2106000000D+02 -0.6395502813D-01
  0.7495000000D+01 -0.1499810660D+00
  0.2797000000D+01 -0.1272620560D+00
  0.5215000000D+00  0.5445292395D+00
  0.1596000000D+00  0.5804962554D+00
 s    9  1.00
  0.6665000000D+04  0.0000000000D+00
  0.1000000000D+04  0.0000000000D+00
  0.2280000000D+03  0.0000000000D+00
  0.6471000000D+02  0.0000000000D+00
  0.2106000000D+02  0.0000000000D+00
  0.7495000000D+01  0.0000000000D+00
  0.2797000000D+01  0.0000000000D+00
  0.5215000000D+00  0.0000000000D+00
  0.1596000000D+00  0.1000000000D+01
 p    4  1.00
  0.9439000000D+01  0.3810902127D-01
  0.2002000000D+01  0.2094801169D+00
  0.5456000000D+00  0.5085572839D+00
  0.1517000000D+00  0.4688422617D+00
 p    4  1.00
  0.9439000000D+01  0.0000000000D+00
  0.2002000000D+01  0.0000000000D+00
  0.5456000000D+00  0.0000000000D+00
  0.1517000000D+00  0.1000000000D+01
 d    1  1.00
  0.5500000000D+00  0.1000000000D+01
  
   2 0
 s    4  1.00
  0.1301000000D+02  0.1968498999D-01
  0.1962000000D+01  0.1379769298D+00
  0.4446000000D+00  0.4781477569D+00
  0.1220000000D+00  0.5012397451D+00
 s    4  1.00
  0.1301000000D+02  0.0000000000D+00
  0.1962000000D+01  0.0000000000D+00
  0.4446000000D+00  0.0000000000D+00
  0.1220000000D+00  0.1000000000D+01
 p    1  1.00
  0.7270000000D+00  0.1000000000D+01
  
   3 0
 s    4  1.00
  0.1301000000D+02  0.1968498999D-01
  0.1962000000D+01  0.1379769298D+00
  0.4446000000D+00  0.4781477569D+00
  0.1220000000D+00  0.5012397451D+00
 s    4  1.00
  0.1301000000D+02  0.0000000000D+00
  0.1962000000D+01  0.0000000000D+00
  0.4446000000D+00  0.0000000000D+00
  0.1220000000D+00  0.1000000000D+01
 p    1  1.00
  0.7270000000D+00  0.1000000000D+01
  
   4 0
 s    4  1.00
  0.1301000000D+02  0.1968498999D-01
  0.1962000000D+01  0.1379769298D+00
  0.4446000000D+00  0.4781477569D+00
  0.1220000000D+00  0.5012397451D+00
 s    4  1.00
  0.1301000000D+02  0.0000000000D+00
  0.1962000000D+01  0.0000000000D+00
  0.4446000000D+00  0.0000000000D+00
  0.1220000000D+00  0.1000000000D+01
 p    1  1.00
  0.7270000000D+00  0.1000000000D+01
  
   5 0
 s    4  1.00
  0.1301000000D+02  0.1968498999D-01
  0.1962000000D+01  0.1379769298D+00
  0.4446000000D+00  0.4781477569D+00
  0.1220000000D+00  0.5012397451D+00
 s    4  1.00
  0.1301000000D+02  0.0000000000D+00
  0.1962000000D+01  0.0000000000D+00
  0.4446000000D+00  0.0000000000D+00
  0.1220000000D+00  0.1000000000D+01
 p    1  1.00
  0.7270000000D+00  0.1000000000D+01


[MO]
 Sym=      1.1
 Ene=     -11.2319
 Spin= Alpha
 Occup=    2.000000
1 1.00137401912233
2 0.007967771422380
3 -0.007976405782976
4 -0.000000063291982
5 -0.000000068076021
6 -0.000005430723019
7 0.000000101851493
8 0.000000221244102
9 -0.000014271694686
10 0.000365251008505
11 0.000365606313137
12 -0.000730857321642
13 0.000000051337618
14 0.000006173864247
15 0.000004437222270
16 -0.000687624549906
17 0.001591178911676
18 0.000039094594914
19 0.000518437403937
20 -0.000001792411732
21 -0.000687298171114
22 0.001591119359093
23 0.000429400296631
24 -0.000292956182388
25 -0.000002733254547
26 -0.000687569796321
27 0.001591441880826
28 -0.000468451688779
29 -0.000225279798425
30 -0.000006889749378
31 -0.000126916140189
32 0.000184192186569
33 -0.000000039888645
34 -0.000000028623147
35 -0.000010797131913
 Sym=      2.1
 Ene=      -0.9005
 Spin= Alpha
 Occup=    2.000000
1 -0.028052679761341
2 0.75580252759019
3 -0.14622362347199
4 0.000011267791159
5 -0.000004843188840
6 -0.003023545288141
7 -0.000002068009931
8 0.000006698136955
9 0.000662212482221
10 0.001685879551179
11 0.001685836422243
12 -0.003371715973422
13 -0.000000282143034
14 0.000028279042322
15 0.000020319975745
16 0.35064815988536
17 -0.14549129645674
18 -0.002142700439808
19 -0.028421083002145
20 -0.000063916613220
21 0.35065782370624
22 -0.14549125839059
23 -0.023541677074515
24 0.016066536337581
25 -0.000012059931651
26 0.35066402969377
27 -0.14549326055702
28 0.025683796692185
29 0.012355770271566
30 0.000216567468132
31 0.002953972895808
32 0.001148631956529
33 0.000000052158892
34 0.000000038603861
35 -0.000417462606435
 Sym=      3.1
 Ene=      -0.5718
 Spin= Alpha
 Occup=    2.000000
1 -0.000000493806259
2 0.000023594625309
3 0.000004738583069
4 0.084204342893182
5 0.63476948790759
6 0.002642295130879
7 -0.015903504122890
8 -0.11988025368969
9 -0.000500167660269
10 -0.020576118859916
11 0.020578887332797
12 -0.000002768472881
13 0.002237503982777
14 -0.000170446352112
15 -0.000372364958299
16 0.63698305047411
17 -0.18126906058455
18 -0.000976081627045
19 -0.022495963696020
20 0.000014784225372
21 -0.28720768678485
22 0.081732610807942
23 0.014768035508856
24 0.003637149533114
25 0.000040480693435
26 -0.34978191352787
27 0.099537306675691
28 -0.015735820521442
29 0.004204369976847
30 -0.000116997693945
31 0.000019231909407
32 0.000003142786192
33 0.000030565968784
34 0.000232158427312
35 -0.000002749864153
 Sym=      4.1
 Ene=      -0.5718
 Spin= Alpha
 Occup=    2.000000
1 -0.000000083432681
2 0.000001713168975
3 0.000001521145141
4 0.63476822366561
5 -0.084217610829820
6 0.002808885798835
7 -0.11986712869049
8 0.015902342583557
9 -0.000531586928117
10 -0.001933461170882
11 0.001937335090730
12 -0.000003873919847
13 -0.023763744689156
14 -0.000561490335141
15 -0.000046576529344
16 -0.036123807374860
17 0.010279431556594
18 0.012727406298487
19 0.000320348500065
20 0.000057809222281
21 0.56970530237273
22 -0.16211337609623
23 -0.013404531685481
24 0.016063961207026
25 0.000079276116298
26 -0.53358063490500
27 0.15183054965511
28 -0.013970050186582
29 -0.014440906323627
30 -0.000202680616884
31 0.000020344675462
32 0.000003068237900
33 0.000231819082975
34 -0.000030987246379
35 -0.000002888339971
 Sym=      5.1
 Ene=      -0.1753
 Spin= Alpha
 Occup=    1.174132
1 0.000550185917036
2 -0.005496898964418
3 -0.003149295183126
4 -0.003055391498643
5 -0.002195163073990
6 0.60752764670486
7 -0.000353917587666
8 -0.000253947248266
9 0.071964326546170
10 -0.000737757565343
11 -0.000745048483092
12 0.001482806048435
13 0.000003649523083
14 -0.000010106225157
15 -0.000008008709519
16 -0.007032769190436
17 0.004825554031717
18 -0.000051612954549
19 0.000160952347089
20 0.013812769763762
21 -0.007007098026792
22 0.004816966501378
23 0.000105252651591
24 -0.000166259873997
25 0.013810336143860
26 -0.006897243433021
27 0.004778299353218
28 -0.000252093150563
29 -0.000137284880086
30 0.013802464509158
31 0.67777940062345
32 0.024182524833580
33 0.000001600565867
34 0.000001144715588
35 -0.000798883223636
 Sym=      6.1
 Ene=      -0.1102
 Spin= Alpha
 Occup=    0.825868
1 0.001389804094684
2 -0.009404282320389
3 -0.009934179980353
4 0.003145836025870
5 0.002259767502722
6 -0.65530515513915
7 0.000361846493962
8 0.000260137093627
9 -0.076293244098959
10 -0.000035754881308
11 -0.000042646889265
12 0.000078401770572
13 0.000003444612533
14 -0.000002939373986
15 -0.000001306319044
16 -0.002155362786707
17 0.002280488679110
18 0.000077600420546
19 0.000174148157945
20 -0.013823040254788
21 -0.002129446252484
22 0.002273427033140
23 0.000171218835918
24 -0.000021409281573
25 -0.013823207843428
26 -0.002016543103844
27 0.002242060663933
28 -0.000041293756073
29 -0.000003725751085
30 -0.013827013927118
31 0.74026619237469
32 -0.026542446616462
33 0.000001491788434
34 0.000001057914129
35 0.001989911454522
 Sym=      7.1
 Ene=       0.2023
 Spin= Alpha
 Occup=    0.000000
1 0.080392205883893
2 -0.21777492813117
3 -2.08467916665591
4 0.000025999565233
5 0.000019963190583
6 0.006314661699357
7 0.000114198200343
8 0.000116523258181
9 -0.000247716296999
10 -0.014099926118439
11 -0.014101581485761
12 0.028201507604200
13 -0.000002500643909
14 -0.000239743152556
15 -0.000172271440503
16 0.051597146558653
17 1.02094282122646
18 -0.001394783159762
19 -0.018476243308021
20 0.000427218071168
21 0.051568077294127
22 1.02103839569676
23 -0.015306488433849
24 0.010440793849611
25 0.000460848977129
26 0.051524050099158
27 1.02146336562366
28 0.016700136573614
29 0.008031008956935
30 0.000609287642195
31 -0.087158935065950
32 0.048113257359724
33 0.000025468304097
34 0.000018241535391
35 -0.004858848975341
 Sym=      8.1
 Ene=       0.2710
 Spin= Alpha
 Occup=    0.000000
1 0.000007753682460
2 -0.000030420467835
3 -0.000175486821764
4 -0.089974365751125
5 -0.43358561094329
6 -0.001937413426352
7 -0.25450666161815
8 -1.22654582672699
9 -0.005614714957304
10 0.021541934703161
11 -0.021543802693688
12 0.000001867990527
13 -0.000527882934897
14 0.000250688436103
15 0.000539689662905
16 0.019816538066395
17 2.17765570070266
18 -0.002542020555033
19 -0.027494960634063
20 -0.000069697202572
21 -0.007626205531863
22 -0.84339835951150
23 0.006949077565587
24 -0.008789234332024
25 -0.000008372883495
26 -0.012092873333194
27 -1.33407483166330
28 -0.013995961550327
29 -0.009924822551646
30 -0.000123354758151
31 -0.000500930238309
32 0.000219474945522
33 0.000483965717722
34 0.002480651565008
35 -0.000031767395548
 Sym=      9.1
 Ene=       0.2710
 Spin= Alpha
 Occup=    0.000000
1 0.000009274518541
2 -0.000011053299706
3 -0.000202966559003
4 -0.43359719933040
5 0.089980384939841
6 -0.001780823743556
7 -1.22644676076053
8 0.25452979056590
9 -0.005159717707326
10 0.000449087125142
11 -0.000455905502950
12 0.000006818377807
13 0.024873936837010
14 0.000719782827258
15 -0.000010705284801
16 -0.002562443761822
17 -0.28320953606188
18 -0.003316038157393
19 0.003851286242878
20 -0.000004939368998
21 0.018477378299356
22 2.02751142723486
23 -0.022017234088692
24 0.013342972462005
25 -0.000024087726592
26 -0.015876078792816
27 -1.74403608387702
28 -0.020880533534718
29 -0.007603901920256
30 -0.000156117355920
31 -0.000465672164251
32 0.000207319878428
33 0.002440202335125
34 -0.000537195632809
35 -0.000029263015475
 Sym=     10.1
 Ene=       0.6151
 Spin= Alpha
 Occup=    0.000000
1 -0.005931826592859
2 -0.014039001522152
3 0.047845630678132
4 -0.44652039275665
5 -0.050762651617223
6 -0.050684041948655
7 1.66469140403534
8 0.18974725311606
9 0.058214845598729
10 0.031351620370687
11 -0.038927688299002
12 0.007576067928315
13 0.11497950924434
14 0.001436620140426
15 0.000484625809476
16 -0.28060417646429
17 0.092699923571220
18 0.068413675062240
19 -0.009117801553265
20 -0.001876811903584
21 -1.03166469946237
22 0.33205784450780
23 0.019986200564219
24 0.041873518541787
25 -0.001717881294971
26 1.21344072782465
27 -0.38291582488542
28 0.007930744410179
29 -0.021747775083831
30 -0.002673875908358
31 -0.16027016312197
32 0.17395862708455
33 0.005467503152849
34 0.000627383868694
35 -0.001454954278716
 Sym=     11.1
 Ene=       0.6151
 Spin= Alpha
 Occup=    0.000000
1 -0.003651400239945
2 -0.008643535285093
3 0.029348415002655
4 0.053435178144668
5 -0.44755919603856
6 -0.030825456888268
7 -0.19864811346300
8 1.66838097912791
9 0.035068414563254
10 0.097336415078989
11 -0.10199677949426
12 0.004660364415275
13 -0.041253814859406
14 0.000281726555123
15 0.000256039020276
16 -1.31857495952634
17 0.42182344045264
18 -0.014035964489322
19 -0.006184890767711
20 -0.001085581090008
21 0.84934601834162
22 -0.26817643638472
23 0.031403695691612
24 0.042755145713401
25 -0.001328632691196
26 0.40827629629101
27 -0.12759436087370
28 -0.028832869666068
29 0.059975512395654
30 -0.001442869670815
31 -0.097817076379770
32 0.10618294684978
33 -0.000646477002910
34 0.005464340326433
35 -0.000881753930092
 Sym=     12.1
 Ene=       0.6170
 Spin= Alpha
 Occup=    0.000000
1 -0.066883348212905
2 -0.15769218569354
3 0.53755294798849
4 0.040142423381928
5 0.031266095907099
6 -0.54892134150362
7 -0.14128754241127
8 -0.11059953265562
9 0.56269841704314
10 -0.051577179256291
11 -0.034280060723851
12 0.085857239980142
13 -0.008089837390531
14 -0.000735585102705
15 -0.000482658412233
16 -0.28026041361538
17 0.12982577704783
18 -0.007805602806047
19 -0.032280567582603
20 -0.025747050314277
21 -0.33180219119188
22 0.14645008198617
23 -0.031175979492864
24 0.012899103854450
25 -0.025725353783054
26 -0.50926466285591
27 0.20442510796714
28 0.031243681751383
29 0.013294491756687
30 -0.025530629659365
31 -1.77492414272432
32 1.92982316496445
33 -0.000457831382104
34 -0.000357912157768
35 -0.014582116943147
 Sym=     13.1
 Ene=       0.7242
 Spin= Alpha
 Occup=    0.000000
1 0.090126644871499
2 0.10187749304181
3 -0.51239397341582
4 0.004629503368162
5 0.003218607084312
6 -0.94255835623602
7 -0.005606352789080
8 -0.003610713845259
9 1.13857006300004
10 0.10496713680093
11 0.10498220480734
12 -0.20994934160827
13 -0.000006315131475
14 0.001784734443874
15 0.001281938627885
16 0.87787700804648
17 -0.62766255908182
18 0.007071148203878
19 0.091630509442082
20 -0.035600280213223
21 0.87817774159492
22 -0.62753861509611
23 0.075962748497189
24 -0.051584024924667
25 -0.035768245321257
26 0.87813562295875
27 -0.62755199145998
28 -0.082508167919553
29 -0.039635944007547
30 -0.036504792107772
31 -0.058886500683081
32 0.040944207374595
33 -0.000014558943941
34 -0.000009453408317
35 -0.014564002722479
 Sym=     14.1
 Ene=       0.7879
 Spin= Alpha
 Occup=    0.000000
1 0.024548861511665
2 -0.093254061483626
3 0.027671813976627
4 -0.004060232938631
5 -0.002993948086430
6 1.01117596320408
7 0.004303054306158
8 0.003343598143866
9 -1.27603999870339
10 0.078489586122367
11 0.078689832260874
12 -0.15717941838324
13 -0.000086476010649
14 0.001519110428344
15 0.001092450995923
16 0.62031406856635
17 -0.55296151866785
18 0.005426935144035
19 0.075175039352549
20 0.031326327728261
21 0.62002320364483
22 -0.55255472491236
23 0.062152231979725
24 -0.042764370661895
25 0.031143442647788
26 0.61823258091573
27 -0.55148836158112
28 -0.068330523833552
29 -0.032923962489692
30 0.030335174905608
31 -1.14742377203267
32 1.36422751428945
33 -0.000045330055183
34 -0.000032280794787
35 0.050236675535656
 Sym=     15.1
 Ene=       0.9033
 Spin= Alpha
 Occup=    0.000000
1 -0.000020682503737
2 -0.000137930422530
3 0.000234666509897
4 -1.23620901625808
5 0.12659345192685
6 -0.005384967329117
7 2.29539948574049
8 -0.23505995600368
9 0.010116597083140
10 -0.036685994384958
11 0.036765454384002
12 -0.000079459999044
13 -0.34125440083998
14 -0.004706158570539
15 -0.001185167899259
16 -0.015774914493516
17 0.053766086674032
18 -0.071616302340055
19 -0.002378916935868
20 -0.000305889865281
21 0.52230045859660
22 -1.76994748890042
23 0.19169819041217
24 -0.17196501940461
25 -0.001345379221572
26 -0.50610481729860
27 1.71565325558536
28 0.20680526619098
29 0.14086856976139
30 0.003141931552252
31 -0.000505964734314
32 0.000664475033115
33 -0.002512758010194
34 0.000335931229536
35 0.000004026833051
 Sym=     16.1
 Ene=       0.9034
 Spin= Alpha
 Occup=    0.000000
1 -0.000027842720374
2 -0.000149486945586
3 0.000237979181493
4 -0.12657333479706
5 -1.23620924365057
6 -0.004785297216511
7 0.23502804022224
8 2.29546376614404
9 0.008982358617462
10 -0.29550521450113
11 0.29554311006599
12 -0.000037895564854
13 0.042438279167762
14 -0.001860444542300
15 -0.001887914618195
16 0.59385146847328
17 -2.01254634081995
18 0.019921415138067
19 0.28958232883358
20 -0.000793039458665
21 -0.28305729429452
22 0.95940847697006
23 -0.14961849314259
24 0.026248126098908
25 0.000272460770141
26 -0.31062911901168
27 1.05285204664734
28 0.16316869447036
29 0.011084139686134
30 0.001840700122331
31 -0.000408281831916
32 0.000541283541992
33 -0.000192410179576
34 -0.002646957050560
35 0.000001686709189
 Sym=     17.1
 Ene=       1.0730
 Spin= Alpha
 Occup=    0.000000
1 -0.79649128126994
2 -3.62326945530036
3 6.13507679504085
4 0.000157226449940
5 0.000137508402760
6 -0.031722230771837
7 -0.000209648198665
8 -0.000280208151180
9 0.036322156157386
10 0.023058533054677
11 0.023058072180265
12 -0.046116605234942
13 0.000038176482066
14 0.000298341922991
15 0.000213935942668
16 -0.16563620900800
17 -0.87003721628760
18 0.014231708077544
19 0.18846841851506
20 -0.000448131416462
21 -0.16563257356427
22 -0.87015481320069
23 0.15612135768865
24 -0.10651463911708
25 -0.000767951948960
26 -0.16550041417385
27 -0.87046157903758
28 -0.17030811044189
29 -0.081924832221365
30 -0.002181606657200
31 0.15475858676550
32 -0.18417394114199
33 -0.000121639171297
34 -0.000087419592279
35 -0.023819823667517
 Sym=     18.1
 Ene=       1.2173
 Spin= Alpha
 Occup=    0.000000
1 -0.000093941918044
2 -0.000404107161055
3 0.000650344382382
4 0.000160026058318
5 0.001192746957409
6 -0.000163845902632
7 0.000464038588863
8 0.003532225088879
9 0.000259353444245
10 -0.005862872973217
11 0.001348770465459
12 0.004514102507758
13 -0.002770887086310
14 0.082141887374447
15 0.62057818425743
16 -0.003618253378160
17 0.000617025511053
18 -0.002202843464244
19 0.000020142522468
20 0.41230503214011
21 0.001472130019357
22 -0.000253928865836
23 -0.002214744970196
24 -0.002794738741918
25 -0.18599944511536
26 0.001819123333877
27 -0.000320540725690
28 0.003684313458091
29 -0.002759065452866
30 -0.22631710190667
31 0.000928803700987
32 -0.001120567302219
33 0.000122349276702
34 0.000930905284161
35 -0.000066958429902
 Sym=     19.1
 Ene=       1.2174
 Spin= Alpha
 Occup=    0.000000
1 -0.000098962479388
2 -0.000425655614464
3 0.000684994185722
4 0.001194725734657
5 -0.000156128482794
6 -0.000185702700011
7 0.003527307094273
8 -0.000470951397482
9 0.000275828909971
10 -0.005771073720241
11 0.000971390440306
12 0.004799683279935
13 -0.007728620118227
14 0.62054102463529
15 -0.082233751122851
16 0.000081059235787
17 -0.000014434095570
18 -0.005033271210411
19 0.000401955958779
20 -0.023300621089472
21 -0.003253906847645
22 0.000556688008759
23 -0.002042870108486
24 -0.003954249791143
25 0.36870836599141
26 0.002827200174081
27 -0.000495768309718
28 0.001542064879903
29 0.004284707259908
30 -0.34538767090609
31 0.000985268228994
32 -0.001188463723776
33 0.000929443510678
34 -0.000124038351472
35 -0.000070260641660
 Sym=     20.1
 Ene=       1.5134
 Spin= Alpha
 Occup=    0.000000
1 -0.000173257147115
2 -0.000768642148888
3 0.001362460702450
4 0.000941913269484
5 0.000355475921800
6 0.000019793551546