 Entering Gaussian System, Link 0=g09
 Input=geom.com
 Output=geom.log
 Initial command:
 /software/cinetica/g09d1/g09d01/d01/build-node-6-2-59348/src/main/l1.exe "/scratch/cc/139156/Gau-67423.inp" -scrdir="/scratch/cc/139156/"
 Entering Link 1 = /software/cinetica/g09d1/g09d01/d01/build-node-6-2-59348/src/main/l1.exe PID=     67424.
  
 Copyright (c) 1988,1990,1992,1993,1995,1998,2003,2009,2013,
            Gaussian, Inc.  All Rights Reserved.
  
 This is part of the Gaussian(R) 09 program.  It is based on
 the Gaussian(R) 03 system (copyright 2003, Gaussian, Inc.),
 the Gaussian(R) 98 system (copyright 1998, Gaussian, Inc.),
 the Gaussian(R) 94 system (copyright 1995, Gaussian, Inc.),
 the Gaussian 92(TM) system (copyright 1992, Gaussian, Inc.),
 the Gaussian 90(TM) system (copyright 1990, Gaussian, Inc.),
 the Gaussian 88(TM) system (copyright 1988, Gaussian, Inc.),
 the Gaussian 86(TM) system (copyright 1986, Carnegie Mellon
 University), and the Gaussian 82(TM) system (copyright 1983,
 Carnegie Mellon University). Gaussian is a federally registered
 trademark of Gaussian, Inc.
  
 This software contains proprietary and confidential information,
 including trade secrets, belonging to Gaussian, Inc.
  
 This software is provided under written license and may be
 used, copied, transmitted, or stored only in accord with that
 written license.
  
 The following legend is applicable only to US Government
 contracts under FAR:
  
                    RESTRICTED RIGHTS LEGEND
  
 Use, reproduction and disclosure by the US Government is
 subject to restrictions as set forth in subparagraphs (a)
 and (c) of the Commercial Computer Software - Restricted
 Rights clause in FAR 52.227-19.
  
 Gaussian, Inc.
 340 Quinnipiac St., Bldg. 40, Wallingford CT 06492
  
  
 ---------------------------------------------------------------
 Warning -- This program may not be used in any manner that
 competes with the business of Gaussian, Inc. or will provide
 assistance to any competitor of Gaussian, Inc.  The licensee
 of this program is prohibited from giving any competitor of
 Gaussian, Inc. access to this program.  By using this program,
 the user acknowledges that Gaussian, Inc. is engaged in the
 business of creating and licensing software in the field of
 computational chemistry and represents and warrants to the
 licensee that it is not a competitor of Gaussian, Inc. and that
 it will not use this program in any manner prohibited above.
 ---------------------------------------------------------------
  

 Cite this work as:
 Gaussian 09, Revision D.01,
 M. J. Frisch, G. W. Trucks, H. B. Schlegel, G. E. Scuseria, 
 M. A. Robb, J. R. Cheeseman, G. Scalmani, V. Barone, B. Mennucci, 
 G. A. Petersson, H. Nakatsuji, M. Caricato, X. Li, H. P. Hratchian, 
 A. F. Izmaylov, J. Bloino, G. Zheng, J. L. Sonnenberg, M. Hada, 
 M. Ehara, K. Toyota, R. Fukuda, J. Hasegawa, M. Ishida, T. Nakajima, 
 Y. Honda, O. Kitao, H. Nakai, T. Vreven, J. A. Montgomery, Jr., 
 J. E. Peralta, F. Ogliaro, M. Bearpark, J. J. Heyd, E. Brothers, 
 K. N. Kudin, V. N. Staroverov, T. Keith, R. Kobayashi, J. Normand, 
 K. Raghavachari, A. Rendell, J. C. Burant, S. S. Iyengar, J. Tomasi, 
 M. Cossi, N. Rega, J. M. Millam, M. Klene, J. E. Knox, J. B. Cross, 
 V. Bakken, C. Adamo, J. Jaramillo, R. Gomperts, R. E. Stratmann, 
 O. Yazyev, A. J. Austin, R. Cammi, C. Pomelli, J. W. Ochterski, 
 R. L. Martin, K. Morokuma, V. G. Zakrzewski, G. A. Voth, 
 P. Salvador, J. J. Dannenberg, S. Dapprich, A. D. Daniels, 
 O. Farkas, J. B. Foresman, J. V. Ortiz, J. Cioslowski, 
 and D. J. Fox, Gaussian, Inc., Wallingford CT, 2013.
 
 ******************************************
 Gaussian 09:  EM64L-G09RevD.01 24-Apr-2013
                27-May-2023 
 ******************************************
 %mem=400MW
 %chk=tmp
 %NProcShared= 32
 Will use up to   32 processors via shared memory.
 ----------------------------------------------------------------------
 # uwb97xd/aug-cc-pvtz opt=(noeig,intern,maxcyc=50) # int=ultrafine nos
 ym iop(7/33=1) guess=(mix,always)
 ----------------------------------------------------------------------
 1/6=50,10=7,11=1,14=-1,18=40,26=4,38=1/1,3;
 2/12=2,15=1,17=6,18=5,29=3,40=1/2;
 3/5=16,6=1,7=10,11=2,16=1,25=1,30=1,71=1,74=-58,75=-5,116=2/1,2,3;
 4/13=-1/1;
 5/5=2,38=5/2;
 6/7=2,8=2,9=2,10=2,28=1/1;
 7/29=1,30=1,33=1/1,2,3,16;
 1/6=50,10=7,11=1,14=-1,18=40,26=4/3(2);
 2/15=1,29=3/2;
 99//99;
 2/15=1,29=3/2;
 3/5=16,6=1,7=10,11=2,16=1,25=1,30=1,71=1,74=-58,75=-5,116=2/1,2,3;
 4/13=-1/1;
 5/5=2,38=5/2;
 7/30=1,33=1/1,2,3,16;
 1/6=50,11=1,14=-1,18=40,26=4/3(-5);
 2/15=1,29=3/2;
 6/7=2,8=2,9=2,10=2,19=2,28=1/1;
 99/9=1/99;
 ------
 geom 0
 ------
 Symbolic Z-matrix:
 Charge =  0 Multiplicity = 3
 C1
 H2                   C1   R1
 H3                   C1   R2       H2   A2
 H4                   C1   R3       H2   A3       H3   D3       0
 C21                  1    rts      2    aabs1    3    babs1    0
 H22                  C21  R21      1    aabs2    2    babs2    0
 H23                  C21  R22      H22  A22      1    babs3    0
 H24                  C21  R23      H22  A23      H23  D23      0
       Variables:
  BABS3                89.3847                   
  BABS2                59.5103                   
  AABS2                89.9062                   
  BABS1                89.5602                   
  AABS1                89.947                    
       Constants:
  D3                  179.8076                   
  R21                   1.0782                   
  R22                   1.0782                   
  R23                   1.0782                   
  A22                 119.9721                   
  A23                 120.0207                   
  D23                 179.8076                   
  A3                  120.0207                   
  A2                  119.9721                   
  R3                    1.0782                   
  R2                    1.0782                   
  R1                    1.0782                   
  RTS                  10.                       
 

 GradGradGradGradGradGradGradGradGradGradGradGradGradGradGradGradGradGrad
 Berny optimization.
 Initialization pass.
                       ----------------------------
                       !    Initial Parameters    !
                       ! (Angstroms and Degrees)  !
 ----------------------                            ----------------------
 !      Name          Value   Derivative information (Atomic Units)     !
 ------------------------------------------------------------------------
 !      BABS3       89.3847   estimate D2E/DX2                          !
 !      BABS2       59.5103   estimate D2E/DX2                          !
 !      AABS2       89.9062   estimate D2E/DX2                          !
 !      BABS1       89.5602   estimate D2E/DX2                          !
 !      AABS1       89.947    estimate D2E/DX2                          !
 !       D3        179.8076   Frozen                                    !
 !       R21         1.0782   Frozen                                    !
 !       R22         1.0782   Frozen                                    !
 !       R23         1.0782   Frozen                                    !
 !       A22       119.9721   Frozen                                    !
 !       A23       120.0207   Frozen                                    !
 !       D23       179.8076   Frozen                                    !
 !       A3        120.0207   Frozen                                    !
 !       A2        119.9721   Frozen                                    !
 !       R3          1.0782   Frozen                                    !
 !       R2          1.0782   Frozen                                    !
 !       R1          1.0782   Frozen                                    !
 !       RTS         10.0     Frozen                                    !
 ------------------------------------------------------------------------
 Trust Radius=3.00D-01 FncErr=1.00D-07 GrdErr=1.00D-06
 Number of steps in this run=     50 maximum allowed number of steps=    100.
 GradGradGradGradGradGradGradGradGradGradGradGradGradGradGradGradGradGrad

 ---------------------------------------------------------------------------------------------------
                            Z-MATRIX (ANGSTROMS AND DEGREES)
   CD    Cent   Atom    N1       Length/X        N2       Alpha/Y        N3        Beta/Z          J
 ---------------------------------------------------------------------------------------------------
      1      1  C 
      2      2  H        1   1.078200(     1)
      3      3  H        1   1.078200(     2)      2  119.972(     8)
      4      4  H        1   1.078200(     3)      2  120.021(     9)      3  179.808(    14)      0
      5      5  C        1  10.000000(     4)      2   89.947(    10)      3   89.560(    15)      0
      6      6  H        5   1.078200(     5)      1   89.906(    11)      2   59.510(    16)      0
      7      7  H        5   1.078200(     6)      6  119.972(    12)      1   89.385(    17)      0
      8      8  H        5   1.078200(     7)      6  120.021(    13)      7  179.808(    18)      0
 ---------------------------------------------------------------------------------------------------
                         Z-Matrix orientation:                         
 ---------------------------------------------------------------------
 Center     Atomic      Atomic             Coordinates (Angstroms)
 Number     Number       Type             X           Y           Z
 ---------------------------------------------------------------------
      1          6           0        0.000000    0.000000    0.000000
      2          1           0        0.000000    0.000000    1.078200
      3          1           0        0.934011    0.000000   -0.538645
      4          1           0       -0.933548   -0.003135   -0.539437
      5          6           0        0.076759   -9.999701    0.009250
      6          1           0       -0.852337  -10.004562    0.556308
      7          1           0        1.014707   -9.982861    0.540744
      8          1           0        0.068077  -10.014808   -1.068809
 ---------------------------------------------------------------------
                    Distance matrix (angstroms):
                    1          2          3          4          5
     1  C    0.000000
     2  H    1.078200   0.000000
     3  H    1.078200   1.867235   0.000000
     4  H    1.078200   1.867692   1.867562   0.000000
     5  C   10.000000  10.056966  10.051323  10.062461   0.000000
     6  H   10.056203  10.054357  10.221605  10.061600   1.078200
     7  H   10.048858  10.048682  10.041370  10.225332   1.078200
     8  H   10.071910  10.242591  10.066146  10.075569   1.078200
                    6          7          8
     6  H    0.000000
     7  H    1.867235   0.000000
     8  H    1.867692   1.867562   0.000000
 Symmetry turned off by external request.
 This structure is nearly, but not quite of a higher symmetry.
 Consider Symm=Loose if the higher symmetry is desired.
 Stoichiometry    C2H6(3)
 Framework group  C1[X(C2H6)]
 Deg. of freedom    18
 Full point group                 C1      NOp   1
 Rotational constants (GHZ):     71.8958752      0.6696527      0.6696519
 Standard basis: Aug-CC-pVTZ (5D, 7F)
   230 basis functions,   306 primitive gaussians,   260 cartesian basis functions
    10 alpha electrons        8 beta electrons
       nuclear repulsion energy        23.6388231729 Hartrees.
 NAtoms=    8 NActive=    8 NUniq=    8 SFac= 1.00D+00 NAtFMM=   60 NAOKFM=F Big=F
 Integral buffers will be    131072 words long.
 Raffenetti 2 integral format.
 Two-electron integral symmetry is turned off.
 Nuclear repulsion after empirical dispersion term =       23.6383058959 Hartrees.
 One-electron integrals computed using PRISM.
 NBasis=   230 RedAO= T EigKep=  1.02D-04  NBF=   230
 NBsUse=   230 1.00D-06 EigRej= -1.00D+00 NBFU=   230
 ExpMin= 2.53D-02 ExpMax= 8.24D+03 ExpMxC= 2.81D+02 IAcc=3 IRadAn=         5 AccDes= 0.00D+00
 Harris functional with IExCor= 4639 and IRadAn=       5 diagonalized for initial guess.
 HarFok:  IExCor= 4639 AccDes= 0.00D+00 IRadAn=         5 IDoV= 1 UseB2=F ITyADJ=14
 ICtDFT=  3500011 ScaDFX=  1.000000  1.000000  1.000000  1.000000
 FoFCou: FMM=F IPFlag=           0 FMFlag=      100000 FMFlg1=           0
         NFxFlg=           0 DoJE=T BraDBF=F KetDBF=T FulRan=T
         wScrn=  0.000000 ICntrl=     500 IOpCl=  0 I1Cent=   200000004 NGrid=           0
         NMat0=    1 NMatS0=      1 NMatT0=    0 NMatD0=    1 NMtDS0=    0 NMtDT0=    0
 Symmetry not used in FoFCou.
 Mixing orbitals, IMix= 1 IMixAn=  0 NRI=1 NE=   10 Coef=  7.07106781D-01  7.07106781D-01
 Mixing orbitals, IMix= 1 IMixAn=  0 NRI=1 NE=    8 Coef= -7.07106781D-01  7.07106781D-01
 Initial guess <Sx>= 0.0000 <Sy>= 0.0000 <Sz>= 1.0000 <S**2>= 2.0000 S= 1.0000
 Requested convergence on RMS density matrix=1.00D-08 within 128 cycles.
 Requested convergence on MAX density matrix=1.00D-06.
 Requested convergence on             energy=1.00D-06.
 No special actions if energy rises.
 SCF Done:  E(UwB97XD) =  -79.6783494990     A.U. after   12 cycles
            NFock= 12  Conv=0.67D-08     -V/T= 2.0068
 <Sx>= 0.0000 <Sy>= 0.0000 <Sz>= 1.0000 <S**2>= 2.0079 S= 1.0026
 <L.S>=  0.00000000000    
 Annihilation of the first spin contaminant:
 S**2 before annihilation     2.0079,   after     2.0000

 **********************************************************************

            Population analysis using the SCF density.

 **********************************************************************

 Alpha  occ. eigenvalues --  -10.29542 -10.29541  -0.78656  -0.78656  -0.50901
 Alpha  occ. eigenvalues --   -0.50901  -0.50893  -0.50893  -0.31485  -0.31484
 Alpha virt. eigenvalues --    0.02708   0.03355   0.04718   0.04720   0.05139
 Alpha virt. eigenvalues --    0.05142   0.08457   0.09832   0.13038   0.13039
 Alpha virt. eigenvalues --    0.13100   0.13108   0.13111   0.13695   0.20022
 Alpha virt. eigenvalues --    0.20023   0.20200   0.20201   0.21746   0.21924
 Alpha virt. eigenvalues --    0.25934   0.25935   0.25936   0.25937   0.31202
 Alpha virt. eigenvalues --    0.32305   0.32307   0.32489   0.32490   0.33074
 Alpha virt. eigenvalues --    0.34217   0.34218   0.35493   0.35826   0.37670
 Alpha virt. eigenvalues --    0.37935   0.39573   0.39574   0.39577   0.39577
 Alpha virt. eigenvalues --    0.40205   0.40208   0.40478   0.40481   0.42101
 Alpha virt. eigenvalues --    0.42101   0.42115   0.42115   0.56760   0.56861
 Alpha virt. eigenvalues --    0.56946   0.57035   0.68801   0.68808   0.68826
 Alpha virt. eigenvalues --    0.68831   0.75355   0.75358   0.75460   0.75462
 Alpha virt. eigenvalues --    0.77418   0.77419   0.77419   0.77419   0.80529
 Alpha virt. eigenvalues --    0.80530   0.83296   0.83666   0.89514   0.89526
 Alpha virt. eigenvalues --    0.92724   0.93564   0.93564   0.93734   0.93736
 Alpha virt. eigenvalues --    0.93935   0.94831   0.94832   0.94833   0.94834
 Alpha virt. eigenvalues --    1.02422   1.02426   1.02438   1.02442   1.03814
 Alpha virt. eigenvalues --    1.03815   1.06045   1.06069   1.08587   1.08587
 Alpha virt. eigenvalues --    1.08599   1.08600   1.09157   1.09158   1.09177
 Alpha virt. eigenvalues --    1.09178   1.23470   1.23495   1.35228   1.35228
 Alpha virt. eigenvalues --    1.35241   1.35241   1.47295   1.47457   1.49101
 Alpha virt. eigenvalues --    1.49211   1.49748   1.49748   1.49823   1.49823
 Alpha virt. eigenvalues --    1.50714   1.50714   1.55644   1.55644   1.55656
 Alpha virt. eigenvalues --    1.55656   1.62043   1.62308   1.78087   1.78094
 Alpha virt. eigenvalues --    1.78220   1.78224   1.93889   1.93890   1.93899
 Alpha virt. eigenvalues --    1.93900   1.96298   1.96299   2.05031   2.05035
 Alpha virt. eigenvalues --    2.05044   2.05047   2.06410   2.06512   2.69292
 Alpha virt. eigenvalues --    2.70034   2.73995   2.73996   2.74040   2.74041
 Alpha virt. eigenvalues --    2.97400   2.97442   2.98743   2.98744   2.98749
 Alpha virt. eigenvalues --    2.98749   3.29185   3.29189   3.34265   3.34270
 Alpha virt. eigenvalues --    3.34286   3.34292   3.37046   3.37046   3.37047
 Alpha virt. eigenvalues --    3.37048   3.42829   3.42833   3.42841   3.42844
 Alpha virt. eigenvalues --    3.43070   3.43070   3.47017   3.47079   3.65829
 Alpha virt. eigenvalues --    3.65843   3.70510   3.70510   3.73361   3.73364
 Alpha virt. eigenvalues --    3.73496   3.73497   3.99801   3.99803   3.99814
 Alpha virt. eigenvalues --    3.99816   4.14389   4.14390   4.14419   4.14419
 Alpha virt. eigenvalues --    4.14660   4.14671   4.39991   4.39991   4.56689
 Alpha virt. eigenvalues --    4.56689   4.56691   4.56691   4.59552   4.59553
 Alpha virt. eigenvalues --    4.59597   4.59599   4.79096   4.79097   4.79532
 Alpha virt. eigenvalues --    4.79589   5.04743   5.04744   5.04799   5.04799
 Alpha virt. eigenvalues --    5.09731   5.09732   5.09758   5.09758   5.17654
 Alpha virt. eigenvalues --    5.17661   5.17694   5.17700   5.28075   5.28121
 Alpha virt. eigenvalues --    6.05862   6.05863   6.18362   6.18380   6.18468
 Alpha virt. eigenvalues --    6.18487   6.40470   6.40471  15.89823  15.91017
  Beta  occ. eigenvalues --  -10.28420 -10.28420  -0.74156  -0.74155  -0.49677
  Beta  occ. eigenvalues --   -0.49676  -0.49668  -0.49667
  Beta virt. eigenvalues --   -0.00027  -0.00006   0.04218   0.04697   0.05516
  Beta virt. eigenvalues --    0.05518   0.05873   0.05876   0.13451   0.13995
  Beta virt. eigenvalues --    0.13997   0.14035   0.14038   0.14256   0.14397
  Beta virt. eigenvalues --    0.15526   0.20284   0.20285   0.20460   0.20461
  Beta virt. eigenvalues --    0.24057   0.24188   0.26508   0.26508   0.26510
  Beta virt. eigenvalues --    0.26510   0.33178   0.33181   0.33352   0.33353
  Beta virt. eigenvalues --    0.33726   0.34336   0.34336   0.35561   0.36481
  Beta virt. eigenvalues --    0.36762   0.38320   0.38684   0.40114   0.40114
  Beta virt. eigenvalues --    0.40117   0.40118   0.40674   0.40676   0.40936
  Beta virt. eigenvalues --    0.40940   0.42399   0.42399   0.42416   0.42417
  Beta virt. eigenvalues --    0.59127   0.59390   0.60364   0.60394   0.68897
  Beta virt. eigenvalues --    0.68903   0.68918   0.68924   0.75956   0.75959
  Beta virt. eigenvalues --    0.76062   0.76064   0.79218   0.79218   0.79219
  Beta virt. eigenvalues --    0.79219   0.80624   0.80625   0.84403   0.84763
  Beta virt. eigenvalues --    0.90673   0.90699   0.93071   0.94174   0.94174
  Beta virt. eigenvalues --    0.94325   0.94344   0.94346   0.95780   0.95780
  Beta virt. eigenvalues --    0.95783   0.95784   1.02438   1.02442   1.02455
  Beta virt. eigenvalues --    1.02459   1.03629   1.03629   1.06504   1.06543
  Beta virt. eigenvalues --    1.09158   1.09159   1.09177   1.09178   1.09846
  Beta virt. eigenvalues --    1.09847   1.09859   1.09859   1.23643   1.23663
  Beta virt. eigenvalues --    1.35379   1.35380   1.35391   1.35392   1.47387
  Beta virt. eigenvalues --    1.47555   1.50252   1.50252   1.50327   1.50327
  Beta virt. eigenvalues --    1.50849   1.50850   1.51956   1.52095   1.56222
  Beta virt. eigenvalues --    1.56222   1.56235   1.56235   1.64771   1.65057
  Beta virt. eigenvalues --    1.78776   1.78782   1.78909   1.78913   1.95050
  Beta virt. eigenvalues --    1.95050   1.95060   1.95061   1.96068   1.96069
  Beta virt. eigenvalues --    2.05352   2.05356   2.05365   2.05368   2.08613
  Beta virt. eigenvalues --    2.08709   2.75378   2.75422   2.75423   2.75470
  Beta virt. eigenvalues --    2.75471   2.76123   2.99334   2.99373   3.02149
  Beta virt. eigenvalues --    3.02150   3.02156   3.02156   3.33643   3.33648
  Beta virt. eigenvalues --    3.37007   3.37013   3.37036   3.37042   3.40268
  Beta virt. eigenvalues --    3.40269   3.40270   3.40270   3.43510   3.43511
  Beta virt. eigenvalues --    3.44266   3.44269   3.44281   3.44283   3.50182
  Beta virt. eigenvalues --    3.50262   3.68610   3.68611   3.70812   3.70813
  Beta virt. eigenvalues --    3.73794   3.73798   3.73930   3.73931   4.01357
  Beta virt. eigenvalues --    4.01359   4.01370   4.01372   4.15646   4.15663
  Beta virt. eigenvalues --    4.15981   4.15981   4.16010   4.16010   4.40859
  Beta virt. eigenvalues --    4.40859   4.57040   4.57040   4.57042   4.57042
  Beta virt. eigenvalues --    4.59769   4.59771   4.59814   4.59817   4.78610
  Beta virt. eigenvalues --    4.78611   4.81532   4.81590   5.05141   5.05141
  Beta virt. eigenvalues --    5.05199   5.05200   5.12852   5.12852   5.12878
  Beta virt. eigenvalues --    5.12879   5.18215   5.18221   5.18255   5.18260
  Beta virt. eigenvalues --    5.29453   5.29499   6.07134   6.07136   6.18989
  Beta virt. eigenvalues --    6.19007   6.19094   6.19114   6.41374   6.41375
  Beta virt. eigenvalues --   15.92445  15.93638
          Condensed to atoms (all electrons):
               1          2          3          4          5          6
     1  C    6.007509   0.346854   0.346849   0.346855   0.000000  -0.000001
     2  H    0.346854   0.285320   0.009242   0.009227  -0.000001  -0.000000
     3  H    0.346849   0.009242   0.285325   0.009233  -0.000001  -0.000000
     4  H    0.346855   0.009227   0.009233   0.285329  -0.000001  -0.000000
     5  C    0.000000  -0.000001  -0.000001  -0.000001   6.007493   0.346870
     6  H   -0.000001  -0.000000  -0.000000  -0.000000   0.346870   0.285348
     7  H   -0.000001  -0.000000  -0.000000  -0.000000   0.346831   0.009243
     8  H   -0.000000  -0.000000  -0.000000  -0.000000   0.346862   0.009225
               7          8
     1  C   -0.000001  -0.000000
     2  H   -0.000000  -0.000000
     3  H   -0.000000  -0.000000
     4  H   -0.000000  -0.000000
     5  C    0.346831   0.346862
     6  H    0.009243   0.009225
     7  H    0.285310   0.009232
     8  H    0.009232   0.285324
          Atomic-Atomic Spin Densities.
               1          2          3          4          5          6
     1  C    0.974384   0.016930   0.016913   0.016878  -0.000000  -0.000001
     2  H    0.016930  -0.028834   0.001790   0.001792  -0.000001  -0.000000
     3  H    0.016913   0.001790  -0.028862   0.001791  -0.000001   0.000000
     4  H    0.016878   0.001792   0.001791  -0.028873  -0.000001  -0.000000
     5  C   -0.000000  -0.000001  -0.000001  -0.000001   0.974387   0.016887
     6  H   -0.000001  -0.000000   0.000000  -0.000000   0.016887  -0.028885
     7  H   -0.000001  -0.000000  -0.000000   0.000000   0.016929   0.001789
     8  H   -0.000001   0.000000  -0.000000  -0.000000   0.016906   0.001794
               7          8
     1  C   -0.000001  -0.000001
     2  H   -0.000000   0.000000
     3  H   -0.000000  -0.000000
     4  H    0.000000  -0.000000
     5  C    0.016929   0.016906
     6  H    0.001789   0.001794
     7  H   -0.028846   0.001790
     8  H    0.001790  -0.028843
 Mulliken charges and spin densities:
               1          2
     1  C   -1.048066   1.025103
     2  H    0.349358  -0.008322
     3  H    0.349352  -0.008369
     4  H    0.349357  -0.008412
     5  C   -1.048055   1.025108
     6  H    0.349314  -0.008416
     7  H    0.349384  -0.008338
     8  H    0.349357  -0.008354
 Sum of Mulliken charges =  -0.00000   2.00000
 Mulliken charges and spin densities with hydrogens summed into heavy atoms:
               1          2
     1  C    0.000000   1.000000
     5  C   -0.000000   1.000000
 Electronic spatial extent (au):  <R**2>=           3273.9700
 Charge=             -0.0000 electrons
 Dipole moment (field-independent basis, Debye):
    X=              0.0001    Y=             -0.0045    Z=              0.0001  Tot=              0.0045
 Quadrupole moment (field-independent basis, Debye-Ang):
   XX=            -14.3807   YY=            -18.1541   ZZ=            -14.3794
   XY=              0.0249   XZ=              0.0004   YZ=              0.0254
 Traceless Quadrupole moment (field-independent basis, Debye-Ang):
   XX=              1.2574   YY=             -2.5160   ZZ=              1.2587
   XY=              0.0249   XZ=              0.0004   YZ=              0.0254
 Octapole moment (field-independent basis, Debye-Ang**2):
  XXX=             -1.6339  YYY=            272.3062  ZZZ=             -0.2002  XYY=             -1.1368
  XXY=             71.9234  XXZ=             -0.0675  XZZ=             -0.5758  YZZ=             71.8808
  YYZ=             -0.5653  XYZ=              0.0162
 Hexadecapole moment (field-independent basis, Debye-Ang**3):
 XXXX=            -30.0134 YYYY=          -5471.7908 ZZZZ=            -29.8034 XXXY=             16.3383
 XXXZ=              0.1963 YYYX=             27.4885 YYYZ=              9.7593 ZZZX=             -0.0862
 ZZZY=             11.1938 XXYY=           -729.2500 XXZZ=             -9.9510 YYZZ=           -728.4807
 XXYZ=             -8.5220 YYXZ=             -0.3092 ZZXY=              5.7455
 N-N= 2.363830589589D+01 E-N=-2.310582191884D+02  KE= 7.913838204918D+01
                          Isotropic Fermi Contact Couplings
        Atom                 a.u.       MegaHertz       Gauss      10(-4) cm-1
     1  C(13)              0.01738       9.77176       3.48681       3.25951
     2  H(1)              -0.01402     -31.33872     -11.18243     -10.45347
     3  H(1)              -0.01402     -31.34499     -11.18467     -10.45556
     4  H(1)              -0.01403     -31.35078     -11.18674     -10.45749
     5  C(13)              0.01739       9.77216       3.48695       3.25964
     6  H(1)              -0.01403     -31.34931     -11.18621     -10.45700
     7  H(1)              -0.01402     -31.34250     -11.18378     -10.45473
     8  H(1)              -0.01402     -31.34311     -11.18400     -10.45494
 --------------------------------------------------------
       Center         ----  Spin Dipole Couplings  ----
                      3XX-RR        3YY-RR        3ZZ-RR
 --------------------------------------------------------
     1   Atom       -0.568206      1.136460     -0.568253
     2   Atom       -0.077975      0.002623      0.075352
     3   Atom        0.037079      0.002626     -0.039705
     4   Atom        0.036966      0.002624     -0.039590
     5   Atom       -0.567966      1.135946     -0.567980
     6   Atom        0.035881      0.002605     -0.038485
     7   Atom        0.038062      0.002639     -0.040702
     8   Atom       -0.077953      0.002626      0.075327
 --------------------------------------------------------
                        XY            XZ            YZ
 --------------------------------------------------------
     1   Atom       -0.002864     -0.000007     -0.001651
     2   Atom       -0.000138      0.000000      0.000048
     3   Atom       -0.000028     -0.066359     -0.000141
     4   Atom        0.000138      0.066424      0.000082
     5   Atom       -0.019995      0.000262     -0.022060
     6   Atom       -0.000356     -0.067028     -0.001385
     7   Atom        0.001148      0.065766      0.000150
     8   Atom       -0.000926      0.001247      0.001100
 --------------------------------------------------------


 ---------------------------------------------------------------------------------
              Anisotropic Spin Dipole Couplings in Principal Axis System
 ---------------------------------------------------------------------------------

       Atom             a.u.   MegaHertz   Gauss  10(-4) cm-1        Axes

              Baa    -0.5683   -76.255   -27.210   -25.436  0.1999  0.0013  0.9798
     1 C(13)  Bbb    -0.5682   -76.248   -27.207   -25.434  0.9798  0.0015 -0.1999
              Bcc     1.1365   152.503    54.417    50.869 -0.0017  1.0000 -0.0010
 
              Baa    -0.0780   -41.604   -14.845   -13.878  1.0000  0.0017 -0.0000
     2 H(1)   Bbb     0.0026     1.400     0.499     0.467 -0.0017  1.0000 -0.0007
              Bcc     0.0754    40.204    14.346    13.411  0.0000  0.0007  1.0000
 
              Baa    -0.0780   -41.605   -14.846   -13.878  0.4996  0.0017  0.8662
     3 H(1)   Bbb     0.0026     1.401     0.500     0.467 -0.0014  1.0000 -0.0011
              Bcc     0.0754    40.204    14.346    13.411  0.8662  0.0006 -0.4996
 
              Baa    -0.0780   -41.604   -14.845   -13.878 -0.5003 -0.0000  0.8658
     4 H(1)   Bbb     0.0026     1.400     0.500     0.467 -0.0019  1.0000 -0.0011
              Bcc     0.0754    40.204    14.346    13.411  0.8658  0.0022  0.5003
 
              Baa    -0.5683   -76.256   -27.210   -25.436 -0.0424  0.0124  0.9990
     5 C(13)  Bbb    -0.5682   -76.247   -27.207   -25.433  0.9990  0.0123  0.0422
              Bcc     1.1365   152.503    54.417    50.869 -0.0117  0.9998 -0.0129
 
              Baa    -0.0780   -41.604   -14.845   -13.878  0.5073  0.0170  0.8616
     6 H(1)   Bbb     0.0026     1.401     0.500     0.467 -0.0133  0.9998 -0.0119
              Bcc     0.0754    40.203    14.346    13.410  0.8617  0.0054 -0.5074
 
              Baa    -0.0780   -41.605   -14.846   -13.878 -0.4931  0.0054  0.8700
     7 H(1)   Bbb     0.0026     1.401     0.500     0.467 -0.0102  0.9999 -0.0120
              Bcc     0.0754    40.204    14.346    13.411  0.8699  0.0147  0.4930
 
              Baa    -0.0780   -41.603   -14.845   -13.877  0.9999  0.0116 -0.0082
     8 H(1)   Bbb     0.0026     1.398     0.499     0.466 -0.0117  0.9998 -0.0149
              Bcc     0.0754    40.205    14.346    13.411  0.0080  0.0150  0.9999
 

 ---------------------------------------------------------------------------------

 DipInt: DoE/N= T T RetVal/Mat= T F Init=T NMatP=  1 IDeriv=0 Min/MaxMlt=  1  1
 Entering OneElI...
 Multipole integrals L=1 to 1 MinM= 0 MaxM= 0.
 Requested accuracy = 0.1000D-12
 PrsmSu:  NPrtUS=   1 ThrOK=F IAlg=1 NPAlg=1 LenDen=           0.
 Prism:   IPart=     0 DynPar=F LinDyn=F Incr=          26.
 PRISM was handed   419185683 working-precision words and  2611 shell-pairs
 IPart=  0 NShTot=        2611 NBatch=          38 AvBLen=        68.7
 PrSmSu:  NxtVal=             27.
 Entering OneElI...
 Calculate overlap and kinetic energy integrals
    NBasis = 260  MinDer = 1  MaxDer = 1
 Requested accuracy = 0.1000D-12
 PrsmSu:  NPrtUS=  32 ThrOK=T IAlg=1 NPAlg=1 LenDen=           0.
 PRISM was handed    13055523 working-precision words and  2746 shell-pairs
 PRISM was handed    13055523 working-precision words and  2746 shell-pairs
 PRISM was handed    13055523 working-precision words and  2746 shell-pairs
 PRISM was handed    13055523 working-precision words and  2746 shell-pairs
 PRISM was handed    13055523 working-precision words and  2746 shell-pairs
 PRISM was handed    13055523 working-precision words and  2746 shell-pairs
 PRISM was handed    13055523 working-precision words and  2746 shell-pairs
 PRISM was handed    13055523 working-precision words and  2746 shell-pairs
 PRISM was handed    13055523 working-precision words and  2746 shell-pairs
 PRISM was handed    13055523 working-precision words and  2746 shell-pairs
 Prism:   IPart=     0 DynPar=F LinDyn=F Incr=           1.
 PRISM was handed    13055523 working-precision words and  2746 shell-pairs
 PRISM was handed    13055523 working-precision words and  2746 shell-pairs
 PRISM was handed    13055523 working-precision words and  2746 shell-pairs
 PRISM was handed    13055523 working-precision words and  2746 shell-pairs
 PRISM was handed    13055523 working-precision words and  2746 shell-pairs
 PRISM was handed    13055523 working-precision words and  2746 shell-pairs
 PRISM was handed    13055523 working-precision words and  2746 shell-pairs
 PRISM was handed    13055523 working-precision words and  2746 shell-pairs
 PRISM was handed    13055523 working-precision words and  2746 shell-pairs
 PRISM was handed    13055523 working-precision words and  2746 shell-pairs
 PRISM was handed    13055523 working-precision words and  2746 shell-pairs
 PRISM was handed    13055523 working-precision words and  2746 shell-pairs
 PRISM was handed    13055523 working-precision words and  2746 shell-pairs
 PRISM was handed    13055523 working-precision words and  2746 shell-pairs
 PRISM was handed    13055523 working-precision words and  2746 shell-pairs
 PRISM was handed    13055523 working-precision words and  2746 shell-pairs
 PRISM was handed    13055523 working-precision words and  2746 shell-pairs
 PRISM was handed    13055523 working-precision words and  2746 shell-pairs
 PRISM was handed    13055523 working-precision words and  2746 shell-pairs
 PRISM was handed    13055523 working-precision words and  2746 shell-pairs
 PRISM was handed    13055523 working-precision words and  2746 shell-pairs
 PRISM was handed    13055523 working-precision words and  2746 shell-pairs
 IPart= 27 NShTot=          76 NBatch=          17 AvBLen=         4.5
 IPart=  2 NShTot=         101 NBatch=          30 AvBLen=         3.4
 IPart= 20 NShTot=          80 NBatch=          17 AvBLen=         4.7
 IPart= 13 NShTot=          86 NBatch=          20 AvBLen=         4.3
 IPart=  3 NShTot=         101 NBatch=          30 AvBLen=         3.4
 IPart=  9 NShTot=          87 NBatch=          21 AvBLen=         4.1
 IPart=  1 NShTot=         110 NBatch=          36 AvBLen=         3.1
 IPart= 10 NShTot=          87 NBatch=          21 AvBLen=         4.1
 IPart= 18 NShTot=          83 NBatch=          20 AvBLen=         4.2
 IPart=  6 NShTot=          92 NBatch=          22 AvBLen=         4.2
 IPart= 12 NShTot=          86 NBatch=          20 AvBLen=         4.3
 IPart= 17 NShTot=          84 NBatch=          20 AvBLen=         4.2
 IPart= 31 NShTot=          74 NBatch=          17 AvBLen=         4.4
 IPart= 19 NShTot=          83 NBatch=          20 AvBLen=         4.2
 IPart=  4 NShTot=          97 NBatch=          27 AvBLen=         3.6
 IPart= 28 NShTot=          74 NBatch=          17 AvBLen=         4.4
 IPart= 29 NShTot=          74 NBatch=          17 AvBLen=         4.4
 IPart= 21 NShTot=          80 NBatch=          17 AvBLen=         4.7
 IPart= 14 NShTot=          85 NBatch=          20 AvBLen=         4.3
 IPart= 24 NShTot=          78 NBatch=          17 AvBLen=         4.6
 IPart= 26 NShTot=          77 NBatch=          17 AvBLen=         4.5
 IPart= 11 NShTot=          87 NBatch=          21 AvBLen=         4.1
 IPart=  8 NShTot=          87 NBatch=          21 AvBLen=         4.1
 IPart= 15 NShTot=          85 NBatch=          20 AvBLen=         4.3
 IPart=  5 NShTot=          97 NBatch=          27 AvBLen=         3.6
 IPart=  7 NShTot=          91 NBatch=          21 AvBLen=         4.3
 IPart= 30 NShTot=          74 NBatch=          17 AvBLen=         4.4
 IPart= 22 NShTot=          79 NBatch=          17 AvBLen=         4.6
 IPart= 25 NShTot=          78 NBatch=          17 AvBLen=         4.6
 IPart= 16 NShTot=          84 NBatch=          20 AvBLen=         4.2
 IPart= 23 NShTot=          79 NBatch=          17 AvBLen=         4.6
 IPart=  0 NShTot=         110 NBatch=          36 AvBLen=         3.1
 PrSmSu:  NxtVal=             33.
 Entering OneElI...
 Calculate potential energy integrals
    NBasis = 260  MinDer = 1  MaxDer = 1
 Requested accuracy = 0.1000D-12
 PrsmSu:  NPrtUS=  32 ThrOK=T IAlg=1 NPAlg=1 LenDen=           0.
 PRISM was handed    13065216 working-precision words and  2218 shell-pairs
 PRISM was handed    13065216 working-precision words and  2218 shell-pairs
 PRISM was handed    13065216 working-precision words and  2218 shell-pairs
 PRISM was handed    13065216 working-precision words and  2218 shell-pairs
 PRISM was handed    13065216 working-precision words and  2218 shell-pairs
 PRISM was handed    13065216 working-precision words and  2218 shell-pairs
 PRISM was handed    13065216 working-precision words and  2218 shell-pairs
 PRISM was handed    13065216 working-precision words and  2218 shell-pairs
 Prism:   IPart=     0 DynPar=F LinDyn=F Incr=           5.
 PRISM was handed    13065216 working-precision words and  2218 shell-pairs
 PRISM was handed    13065216 working-precision words and  2218 shell-pairs
 PRISM was handed    13065216 working-precision words and  2218 shell-pairs
 PRISM was handed    13065216 working-precision words and  2218 shell-pairs
 PRISM was handed    13065216 working-precision words and  2218 shell-pairs
 PRISM was handed    13065216 working-precision words and  2218 shell-pairs
 PRISM was handed    13065216 working-precision words and  2218 shell-pairs
 PRISM was handed    13065216 working-precision words and  2218 shell-pairs
 PRISM was handed    13065216 working-precision words and  2218 shell-pairs
 PRISM was handed    13065216 working-precision words and  2218 shell-pairs
 PRISM was handed    13065216 working-precision words and  2218 shell-pairs
 PRISM was handed    13065216 working-precision words and  2218 shell-pairs
 PRISM was handed    13065216 working-precision words and  2218 shell-pairs
 PRISM was handed    13065216 working-precision words and  2218 shell-pairs
 PRISM was handed    13065216 working-precision words and  2218 shell-pairs
 PRISM was handed    13065216 working-precision words and  2218 shell-pairs
 PRISM was handed    13065216 working-precision words and  2218 shell-pairs
 PRISM was handed    13065216 working-precision words and  2218 shell-pairs
 PRISM was handed    13065216 working-precision words and  2218 shell-pairs
 PRISM was handed    13065216 working-precision words and  2218 shell-pairs
 PRISM was handed    13065216 working-precision words and  2218 shell-pairs
 PRISM was handed    13065216 working-precision words and  2218 shell-pairs
 PRISM was handed    13065216 working-precision words and  2218 shell-pairs
 PRISM was handed    13065216 working-precision words and  2218 shell-pairs
 IPart= 14 NShTot=         552 NBatch=          69 AvBLen=         8.0
 IPart= 29 NShTot=         464 NBatch=          58 AvBLen=         8.0
 IPart=  1 NShTot=         728 NBatch=          91 AvBLen=         8.0
 IPart= 24 NShTot=         504 NBatch=          63 AvBLen=         8.0
 IPart= 12 NShTot=         560 NBatch=          70 AvBLen=         8.0
 IPart= 28 NShTot=         464 NBatch=          58 AvBLen=         8.0
 IPart=  4 NShTot=         640 NBatch=          80 AvBLen=         8.0
 IPart=  5 NShTot=         640 NBatch=          80 AvBLen=         8.0
 IPart= 20 NShTot=         520 NBatch=          65 AvBLen=         8.0
 IPart=  3 NShTot=         664 NBatch=          83 AvBLen=         8.0
 IPart= 31 NShTot=         464 NBatch=          58 AvBLen=         8.0
 IPart=  9 NShTot=         568 NBatch=          71 AvBLen=         8.0
 IPart= 26 NShTot=         480 NBatch=          60 AvBLen=         8.0
 IPart= 11 NShTot=         568 NBatch=          71 AvBLen=         8.0
 IPart= 30 NShTot=         464 NBatch=          58 AvBLen=         8.0
 IPart=  7 NShTot=         576 NBatch=          72 AvBLen=         8.0
 IPart= 13 NShTot=         560 NBatch=          70 AvBLen=         8.0
 IPart= 23 NShTot=         512 NBatch=          64 AvBLen=         8.0
 IPart=  0 NShTot=         728 NBatch=          91 AvBLen=         8.0
 IPart= 18 NShTot=         520 NBatch=          65 AvBLen=         8.0
 IPart= 19 NShTot=         520 NBatch=          65 AvBLen=         8.0
 IPart= 10 NShTot=         568 NBatch=          71 AvBLen=         8.0
 IPart= 21 NShTot=         520 NBatch=          65 AvBLen=         8.0
 IPart= 16 NShTot=         544 NBatch=          68 AvBLen=         8.0
 IPart=  8 NShTot=         568 NBatch=          71 AvBLen=         8.0
 IPart= 17 NShTot=         544 NBatch=          68 AvBLen=         8.0
 IPart=  2 NShTot=         680 NBatch=          85 AvBLen=         8.0
 IPart= 15 NShTot=         552 NBatch=          69 AvBLen=         8.0
 IPart= 25 NShTot=         504 NBatch=          63 AvBLen=         8.0
 IPart=  6 NShTot=         576 NBatch=          72 AvBLen=         8.0
 IPart= 22 NShTot=         512 NBatch=          64 AvBLen=         8.0
 IPart= 27 NShTot=         480 NBatch=          60 AvBLen=         8.0
 PrSmSu:  NxtVal=            161.
 l701 out
 I=    0 X=   5.675114223722D-05 Y=  -1.758089785945D-03 Z=   5.325690420266D-05
 I=    1 X=  -2.623168031321D-03 Y=   1.722322891525D-01 Z=  -4.492097064486D-04
 I=    2 X=  -2.117997014592D-05 Y=   1.991298696900D-02 Z=   2.457630000642D+00
 I=    3 X=   2.128973783297D+00 Y=   1.993793360592D-02 Z=  -1.227772421572D+00
 I=    4 X=  -2.128052468217D+00 Y=   1.272192225021D-02 Z=  -1.229629032828D+00
 I=    5 X=   8.248346130963D-04 Y=  -1.588887030225D-01 Z=  -1.419138001573D-03
 I=    6 X=  -2.117637989104D+00 Y=  -3.068445944514D-02 Z=   1.247117402560D+00
 I=    7 X=   2.138155179788D+00 Y=   1.871830070327D-02 Z=   1.211649017128D+00
 I=    8 X=  -1.961899237624D-02 Y=  -5.395027021326D-02 Z=  -2.457126618221D+00
 ICntrl=      2127.
 Calling FoFJK, ICntrl=      2127 FMM=F ISym2X=0 I1Cent= 0 IOpClX= 1 NMat=1 NMatS=1 NMatT=0.
 FoFJK:  IHMeth= 1 ICntrl=    2127 DoSepK=T KAlg= 0 I1Cent=   0 FoldK=F
 IRaf=         1 NMat=   1 IRICut=       1 DoRegI=T DoRafI=F ISym2E= 0.
 FoFCou: FMM=F IPFlag=           0 FMFlag=      100000 FMFlg1=         800
         NFxFlg=           0 DoJE=F BraDBF=F KetDBF=F FulRan=T
         wScrn=  0.000000 ICntrl=    2527 IOpCl=  0 I1Cent=           0 NGrid=           0
         NMat0=    1 NMatS0=      1 NMatT0=    0 NMatD0=    1 NMtDS0=    0 NMtDT0=    0
 Symmetry not used in FoFCou.
 FoFCou:  KetSym=F NOpSet=  1 NOpAb=1 NOp=  1.
 FoFCou:  CnvScl= 1.00D+00 Thresh= 1.00D-10 IAcrcy=      10.
 PrismS was handed   419121767 working-precision words and  2384 shell-pairs
 FoFCou: LinMIO=F DoNuc=F BraDBF=F KetDBF=F HaveP=T PDBF=F HaveZ=T HaveW=F
         NIJTC =      10 NIJTAt=       0 NIJTCD=       0 NIJTT =      10
         IJTBeg=       1 IJTEnd=      10 KLTBeg=       1 KLTEnd=      10
         IPTBeg=       1 IPTEnd=      10 IPTBCv=       1 IPTECv=      10
         IZTBeg=       1 IZTEnd=      10 IZTBCv=       1 IZTECv=      10
         IWTBeg=      11 IWTEnd=      10 IWTBCv=      11 IWTECv=      10
         INTBeg=       1 INTEnd=       0 IFTBCv=       1 IFTECv=      10
 NCel replicated for PrismC:     1
 CoulSu:  IncDef=  1024 NBBP=        2842920 NTPThr=   100 NPartT=   32 Incr=         888 LDynOK=F.
 CoulSu:  NPrtUS=  32 ThrOK=T IAlg=1 NPAlg=1 LenDen=           0 LWGrdD=           0 DoCopy=F.
 Enter PrismC: JobTyp=21 DoJE=F Cont=F.
 Enter PrismC: JobTyp=21 DoJE=F Cont=F.
 Enter PrismC: JobTyp=21 DoJE=F Cont=F.
 Enter PrismC: JobTyp=21 DoJE=F Cont=F.
 PrismC:  IPart=     0 DynPar=T LinDyn=F Incr=         888 UseFst=F UseS4=T IGathr=2.
 PrismC was handed    13061530 working-precision words and  2384 shell-pairs
 Enter PrismC: JobTyp=21 DoJE=F Cont=F.
 Enter PrismC: JobTyp=21 DoJE=F Cont=F.
 Enter PrismC: JobTyp=21 DoJE=F Cont=F.
 Enter PrismC: JobTyp=21 DoJE=F Cont=F.
 Enter PrismC: JobTyp=21 DoJE=F Cont=F.
 Enter PrismC: JobTyp=21 DoJE=F Cont=F.
 Enter PrismC: JobTyp=21 DoJE=F Cont=F.
 Enter PrismC: JobTyp=21 DoJE=F Cont=F.
 PrismC was handed    13061530 working-precision words and  2384 shell-pairs
 Enter PrismC: JobTyp=21 DoJE=F Cont=F.
 Enter PrismC: JobTyp=21 DoJE=F Cont=F.
 Enter PrismC: JobTyp=21 DoJE=F Cont=F.
 Enter PrismC: JobTyp=21 DoJE=F Cont=F.
 Enter PrismC: JobTyp=21 DoJE=F Cont=F.
 Enter PrismC: JobTyp=21 DoJE=F Cont=F.
 Enter PrismC: JobTyp=21 DoJE=F Cont=F.
 Enter PrismC: JobTyp=21 DoJE=F Cont=F.
 Enter PrismC: JobTyp=21 DoJE=F Cont=F.
 Enter PrismC: JobTyp=21 DoJE=F Cont=F.
 Enter PrismC: JobTyp=21 DoJE=F Cont=F.
 PrismC was handed    13061530 working-precision words and  2384 shell-pairs
 Enter PrismC: JobTyp=21 DoJE=F Cont=F.
 Enter PrismC: JobTyp=21 DoJE=F Cont=F.
 Enter PrismC: JobTyp=21 DoJE=F Cont=F.
 Enter PrismC: JobTyp=21 DoJE=F Cont=F.
 Enter PrismC: JobTyp=21 DoJE=F Cont=F.
 Enter PrismC: JobTyp=21 DoJE=F Cont=F.
 Enter PrismC: JobTyp=21 DoJE=F Cont=F.
 PrismC was handed    13061530 working-precision words and  2384 shell-pairs
 PrismC was handed    13061530 working-precision words and  2384 shell-pairs
 PrismC was handed    13061530 working-precision words and  2384 shell-pairs
 PrismC was handed    13061530 working-precision words and  2384 shell-pairs
 PrismC was handed    13061530 working-precision words and  2384 shell-pairs
 PrismC was handed    13061530 working-precision words and  2384 shell-pairs
 PrismC was handed    13061530 working-precision words and  2384 shell-pairs
 PrismC was handed    13061530 working-precision words and  2384 shell-pairs
 PrismC was handed    13061530 working-precision words and  2384 shell-pairs
 PrismC was handed    13061530 working-precision words and  2384 shell-pairs
 Enter PrismC: JobTyp=21 DoJE=F Cont=F.
 PrismC was handed    13061530 working-precision words and  2384 shell-pairs
 Enter PrismC: JobTyp=21 DoJE=F Cont=F.
 PrismC was handed    13061530 working-precision words and  2384 shell-pairs
 PrismC was handed    13061530 working-precision words and  2384 shell-pairs
 PrismC was handed    13061530 working-precision words and  2384 shell-pairs
 PrismC was handed    13061530 working-precision words and  2384 shell-pairs
 PrismC was handed    13061530 working-precision words and  2384 shell-pairs
 PrismC was handed    13061530 working-precision words and  2384 shell-pairs
 PrismC was handed    13061530 working-precision words and  2384 shell-pairs
 PrismC was handed    13061530 working-precision words and  2384 shell-pairs
 PrismC was handed    13061530 working-precision words and  2384 shell-pairs
 PrismC was handed    13061530 working-precision words and  2384 shell-pairs
 PrismC was handed    13061530 working-precision words and  2384 shell-pairs
 PrismC was handed    13061530 working-precision words and  2384 shell-pairs
 PrismC was handed    13061530 working-precision words and  2384 shell-pairs
 PrismC was handed    13061530 working-precision words and  2384 shell-pairs
 PrismC was handed    13061530 working-precision words and  2384 shell-pairs
 PrismC was handed    13061530 working-precision words and  2384 shell-pairs
 PrismC was handed    13061530 working-precision words and  2384 shell-pairs
 PrismC was handed    13061530 working-precision words and  2384 shell-pairs
 IPart=  1 NShTot=       74206 NShNF=       74206 NShFF=           0 NBatch=         732 AvBLen=       101.4
 IPart=  2 NShTot=      101114 NShNF=      101114 NShFF=           0 NBatch=        1070 AvBLen=        94.5
 IPart= 12 NShTot=       66365 NShNF=       66365 NShFF=           0 NBatch=         446 AvBLen=       148.8
 IPart=  7 NShTot=      159465 NShNF=      159465 NShFF=           0 NBatch=        1028 AvBLen=       155.1
 IPart= 25 NShTot=       47148 NShNF=       47148 NShFF=           0 NBatch=         408 AvBLen=       115.6
 IPart=  3 NShTot=       60098 NShNF=       60098 NShFF=           0 NBatch=         478 AvBLen=       125.7
 IPart= 16 NShTot=       49142 NShNF=       49142 NShFF=           0 NBatch=         493 AvBLen=        99.7
 IPart= 29 NShTot=       63175 NShNF=       63175 NShFF=           0 NBatch=         498 AvBLen=       126.9
 IPart= 24 NShTot=       66855 NShNF=       66855 NShFF=           0 NBatch=         413 AvBLen=       161.9
 IPart= 26 NShTot=       66709 NShNF=       66709 NShFF=           0 NBatch=         529 AvBLen=       126.1
 IPart=  5 NShTot=       63875 NShNF=       63875 NShFF=           0 NBatch=         567 AvBLen=       112.7
 IPart= 28 NShTot=       53729 NShNF=       53729 NShFF=           0 NBatch=         514 AvBLen=       104.5
 IPart=  6 NShTot=       62162 NShNF=       62162 NShFF=           0 NBatch=         472 AvBLen=       131.7
 IPart= 13 NShTot=       66172 NShNF=       66172 NShFF=           0 NBatch=         536 AvBLen=       123.5
 IPart= 21 NShTot=       30074 NShNF=       30074 NShFF=           0 NBatch=         379 AvBLen=        79.4
 IPart= 11 NShTot=       62842 NShNF=       62842 NShFF=           0 NBatch=         502 AvBLen=       125.2
 IPart=  0 NShTot=       68429 NShNF=       68429 NShFF=           0 NBatch=         227 AvBLen=       301.4
 IPart= 15 NShTot=       66592 NShNF=       66592 NShFF=           0 NBatch=         555 AvBLen=       120.0
 IPart= 18 NShTot=       68876 NShNF=       68876 NShFF=           0 NBatch=         426 AvBLen=       161.7
 IPart= 22 NShTot=       60019 NShNF=       60019 NShFF=           0 NBatch=         542 AvBLen=       110.7
 IPart= 27 NShTot=       74226 NShNF=       74226 NShFF=           0 NBatch=         484 AvBLen=       153.4
 IPart= 31 NShTot=       56062 NShNF=       56062 NShFF=           0 NBatch=         302 AvBLen=       185.6
 IPart= 17 NShTot=       67022 NShNF=       67022 NShFF=           0 NBatch=         547 AvBLen=       122.5
 IPart=  4 NShTot=       64618 NShNF=       64618 NShFF=           0 NBatch=         476 AvBLen=       135.8
 IPart=  8 NShTot=       64389 NShNF=       64389 NShFF=           0 NBatch=         611 AvBLen=       105.4
 IPart=  9 NShTot=       73631 NShNF=       73631 NShFF=           0 NBatch=         501 AvBLen=       147.0
 IPart= 14 NShTot=       30139 NShNF=       30139 NShFF=           0 NBatch=         305 AvBLen=        98.8
 IPart= 30 NShTot=       63680 NShNF=       63680 NShFF=           0 NBatch=         542 AvBLen=       117.5
 IPart= 19 NShTot=       61279 NShNF=       61279 NShFF=           0 NBatch=         529 AvBLen=       115.8
 IPart= 23 NShTot=       53963 NShNF=       53963 NShFF=           0 NBatch=         485 AvBLen=       111.3
 IPart= 20 NShTot=       62400 NShNF=       62400 NShFF=           0 NBatch=         545 AvBLen=       114.5
 IPart= 10 NShTot=       54934 NShNF=       54934 NShFF=           0 NBatch=         405 AvBLen=       135.6
 CoulSu:  NxtVal=        3166609.
 FoFCou: FMM=F IPFlag=           0 FMFlag=      100000 FMFlg1=         800
         NFxFlg=           0 DoJE=F BraDBF=F KetDBF=F FulRan=T
         wScrn=  0.000000 ICntrl=    2127 IOpCl=  1 I1Cent=           0 NGrid=           0
         NMat0=    1 NMatS0=      0 NMatT0=    1 NMatD0=    1 NMtDS0=    0 NMtDT0=    0
         CW=    0.222036    0.777964
         WU=    0.000000   12.500000
 Symmetry not used in FoFCou.
 FoFCou:  KetSym=F NOpSet=  1 NOpAb=1 NOp=  1.
 FoFCou:  CnvScl= 1.00D+00 Thresh= 1.00D-10 IAcrcy=      10.
 PrismS was handed   419118420 working-precision words and  2384 shell-pairs
 FoFCou: LinMIO=F DoNuc=F BraDBF=F KetDBF=F HaveP=T PDBF=F HaveZ=T HaveW=F
         NIJTC =      10 NIJTAt=       0 NIJTCD=       0 NIJTT =      10
         IJTBeg=       1 IJTEnd=      10 KLTBeg=       1 KLTEnd=      10
         IPTBeg=       1 IPTEnd=      10 IPTBCv=       1 IPTECv=      10
         IZTBeg=       1 IZTEnd=      10 IZTBCv=       1 IZTECv=      10
         IWTBeg=      11 IWTEnd=      10 IWTBCv=      11 IWTECv=      10
         INTBeg=       1 INTEnd=       0 IFTBCv=       1 IFTECv=      10
 NCel replicated for PrismC:     1
 CoulSu:  IncDef=  1024 NBBP=        2842920 NTPThr=   100 NPartT=   32 Incr=         888 LDynOK=F.
 CoulSu:  NPrtUS=  32 ThrOK=T IAlg=1 NPAlg=1 LenDen=           0 LWGrdD=           0 DoCopy=F.
 Enter PrismC: JobTyp=21 DoJE=F Cont=F.
 Enter PrismC: JobTyp=21 DoJE=F Cont=F.
 Enter PrismC: JobTyp=21 DoJE=F Cont=F.
 Linear combination for Coulomb/exchange, wScrn=  0.000000
 Enter PrismC: JobTyp=21 DoJE=F Cont=F.
 Linear combination for Coulomb/exchange, wScrn=  0.000000
 CW=    0.222036    0.777964
 WU=    0.000000   12.500000
 Enter PrismC: JobTyp=21 DoJE=F Cont=F.
 Linear combination for Coulomb/exchange, wScrn=  0.000000
 CW=    0.222036    0.777964
 WU=    0.000000   12.500000
 Enter PrismC: JobTyp=21 DoJE=F Cont=F.
 Linear combination for Coulomb/exchange, wScrn=  0.000000
 CW=    0.222036    0.777964
 WU=    0.000000   12.500000
 Enter PrismC: JobTyp=21 DoJE=F Cont=F.
 Linear combination for Coulomb/exchange, wScrn=  0.000000
 CW=    0.222036    0.777964
 WU=    0.000000   12.500000
 Enter PrismC: JobTyp=21 DoJE=F Cont=F.
 Enter PrismC: JobTyp=21 DoJE=F Cont=F.
 Linear combination for Coulomb/exchange, wScrn=  0.000000
 CW=    0.222036    0.777964
 WU=    0.000000   12.500000
 PrismC was handed    13061425 working-precision words and  2384 shell-pairs
 Enter PrismC: JobTyp=21 DoJE=F Cont=F.
 Linear combination for Coulomb/exchange, wScrn=  0.000000
 CW=    0.222036    0.777964
 WU=    0.000000   12.500000
 PrismC was handed    13061425 working-precision words and  2384 shell-pairs
 Linear combination for Coulomb/exchange, wScrn=  0.000000
 Enter PrismC: JobTyp=21 DoJE=F Cont=F.
 Linear combination for Coulomb/exchange, wScrn=  0.000000
 CW=    0.222036    0.777964
 WU=    0.000000   12.500000
 PrismC:  IPart=     0 DynPar=T LinDyn=F Incr=         888 UseFst=F UseS4=T IGathr=2.
 PrismC was handed    13061425 working-precision words and  2384 shell-pairs
 Enter PrismC: JobTyp=21 DoJE=F Cont=F.
 Linear combination for Coulomb/exchange, wScrn=  0.000000
 CW=    0.222036    0.777964
 WU=    0.000000   12.500000
 PrismC was handed    13061425 working-precision words and  2384 shell-pairs
 Enter PrismC: JobTyp=21 DoJE=F Cont=F.
 Linear combination for Coulomb/exchange, wScrn=  0.000000
 CW=    0.222036    0.777964
 WU=    0.000000   12.500000
 Enter PrismC: JobTyp=21 DoJE=F Cont=F.
 Linear combination for Coulomb/exchange, wScrn=  0.000000
 CW=    0.222036    0.777964
 WU=    0.000000   12.500000
 PrismC was handed    13061425 working-precision words and  2384 shell-pairs
 CW=    0.222036    0.777964
 WU=    0.000000   12.500000
 PrismC was handed    13061425 working-precision words and  2384 shell-pairs
 PrismC was handed    13061425 working-precision words and  2384 shell-pairs
 Enter PrismC: JobTyp=21 DoJE=F Cont=F.
 Linear combination for Coulomb/exchange, wScrn=  0.000000
 CW=    0.222036    0.777964
 Enter PrismC: JobTyp=21 DoJE=F Cont=F.
 Linear combination for Coulomb/exchange, wScrn=  0.000000
 CW=    0.222036    0.777964
 WU=    0.000000   12.500000
 Enter PrismC: JobTyp=21 DoJE=F Cont=F.
 Linear combination for Coulomb/exchange, wScrn=  0.000000
 CW=    0.222036    0.777964
 WU=    0.000000   12.500000
 PrismC was handed    13061425 working-precision words and  2384 shell-pairs
 Enter PrismC: JobTyp=21 DoJE=F Cont=F.
 Linear combination for Coulomb/exchange, wScrn=  0.000000
 CW=    0.222036    0.777964
 WU=    0.000000   12.500000
 PrismC was handed    13061425 working-precision words and  2384 shell-pairs
 Enter PrismC: JobTyp=21 DoJE=F Cont=F.
 Linear combination for Coulomb/exchange, wScrn=  0.000000
 CW=    0.222036    0.777964
 WU=    0.000000   12.500000
 PrismC was handed    13061425 working-precision words and  2384 shell-pairs
 PrismC was handed    13061425 working-precision words and  2384 shell-pairs
 Enter PrismC: JobTyp=21 DoJE=F Cont=F.
 Linear combination for Coulomb/exchange, wScrn=  0.000000
 CW=    0.222036    0.777964
 WU=    0.000000   12.500000
 Enter PrismC: JobTyp=21 DoJE=F Cont=F.
 Linear combination for Coulomb/exchange, wScrn=  0.000000
 CW=    0.222036    0.777964
 WU=    0.000000   12.500000
 PrismC was handed    13061425 working-precision words and  2384 shell-pairs
 Enter PrismC: JobTyp=21 DoJE=F Cont=F.
 Linear combination for Coulomb/exchange, wScrn=  0.000000
 CW=    0.222036    0.777964
 WU=    0.000000   12.500000
 Enter PrismC: JobTyp=21 DoJE=F Cont=F.
 Linear combination for Coulomb/exchange, wScrn=  0.000000
 CW=    0.222036    0.777964
 WU=    0.000000   12.500000
 Linear combination for Coulomb/exchange, wScrn=  0.000000
 CW=    0.222036    0.777964
 WU=    0.000000   12.500000
 Enter PrismC: JobTyp=21 DoJE=F Cont=F.
 Linear combination for Coulomb/exchange, wScrn=  0.000000
 CW=    0.222036    0.777964
 WU=    0.000000   12.500000
 PrismC was handed    13061425 working-precision words and  2384 shell-pairs
 Enter PrismC: JobTyp=21 DoJE=F Cont=F.
 Linear combination for Coulomb/exchange, wScrn=  0.000000
 CW=    0.222036    0.777964
 WU=    0.000000   12.500000
 Enter PrismC: JobTyp=21 DoJE=F Cont=F.
 Linear combination for Coulomb/exchange, wScrn=  0.000000
 CW=    0.222036    0.777964
 WU=    0.000000   12.500000
 PrismC was handed    13061425 working-precision words and  2384 shell-pairs
 Linear combination for Coulomb/exchange, wScrn=  0.000000
 CW=    0.222036    0.777964
 WU=    0.000000   12.500000
 Enter PrismC: JobTyp=21 DoJE=F Cont=F.
 Linear combination for Coulomb/exchange, wScrn=  0.000000
 CW=    0.222036    0.777964
 WU=    0.000000   12.500000
 Enter PrismC: JobTyp=21 DoJE=F Cont=F.
 Linear combination for Coulomb/exchange, wScrn=  0.000000
 CW=    0.222036    0.777964
 WU=    0.000000   12.500000
 Enter PrismC: JobTyp=21 DoJE=F Cont=F.
 Linear combination for Coulomb/exchange, wScrn=  0.000000
 CW=    0.222036    0.777964
 WU=    0.000000   12.500000
 PrismC was handed    13061425 working-precision words and  2384 shell-pairs
 PrismC was handed    13061425 working-precision words and  2384 shell-pairs
 PrismC was handed    13061425 working-precision words and  2384 shell-pairs
 Enter PrismC: JobTyp=21 DoJE=F Cont=F.
 Linear combination for Coulomb/exchange, wScrn=  0.000000
 CW=    0.222036    0.777964
 WU=    0.000000   12.500000
 PrismC was handed    13061425 working-precision words and  2384 shell-pairs
 Enter PrismC: JobTyp=21 DoJE=F Cont=F.
 Linear combination for Coulomb/exchange, wScrn=  0.000000
 CW=    0.222036    0.777964
 WU=    0.000000   12.500000
 PrismC was handed    13061425 working-precision words and  2384 shell-pairs
 PrismC was handed    13061425 working-precision words and  2384 shell-pairs
 PrismC was handed    13061425 working-precision words and  2384 shell-pairs
 PrismC was handed    13061425 working-precision words and  2384 shell-pairs
 Enter PrismC: JobTyp=21 DoJE=F Cont=F.
 Linear combination for Coulomb/exchange, wScrn=  0.000000
 CW=    0.222036    0.777964
 WU=    0.000000   12.500000
 PrismC was handed    13061425 working-precision words and  2384 shell-pairs
 PrismC was handed    13061425 working-precision words and  2384 shell-pairs
 PrismC was handed    13061425 working-precision words and  2384 shell-pairs
 PrismC was handed    13061425 working-precision words and  2384 shell-pairs
 CW=    0.222036    0.777964
 WU=    0.000000   12.500000
 PrismC was handed    13061425 working-precision words and  2384 shell-pairs
 PrismC was handed    13061425 working-precision words and  2384 shell-pairs
 PrismC was handed    13061425 working-precision words and  2384 shell-pairs
 WU=    0.000000   12.500000
 PrismC was handed    13061425 working-precision words and  2384 shell-pairs
 PrismC was handed    13061425 working-precision words and  2384 shell-pairs
 PrismC was handed    13061425 working-precision words and  2384 shell-pairs
 IPart= 10 NShTot=       66960 NShNF=       66960 NShFF=           0 NBatch=         699 AvBLen=        95.8
 IPart= 27 NShTot=       70419 NShNF=       70419 NShFF=           0 NBatch=         728 AvBLen=        96.7
 IPart= 16 NShTot=       78490 NShNF=       78490 NShFF=           0 NBatch=         730 AvBLen=       107.5
 IPart= 26 NShTot=       67845 NShNF=       67845 NShFF=           0 NBatch=         726 AvBLen=        93.5
 IPart= 30 NShTot=       65310 NShNF=       65310 NShFF=           0 NBatch=         695 AvBLen=        94.0
 IPart= 21 NShTot=       69391 NShNF=       69391 NShFF=           0 NBatch=         713 AvBLen=        97.3
 IPart=  0 NShTot=       55556 NShNF=       55556 NShFF=           0 NBatch=         304 AvBLen=       182.8
 IPart= 15 NShTot=       64548 NShNF=       64548 NShFF=           0 NBatch=         643 AvBLen=       100.4
 IPart=  3 NShTot=       66693 NShNF=       66693 NShFF=           0 NBatch=         559 AvBLen=       119.3
 IPart= 31 NShTot=       62221 NShNF=       62221 NShFF=           0 NBatch=         689 AvBLen=        90.3
 IPart= 17 NShTot=       66154 NShNF=       66154 NShFF=           0 NBatch=         773 AvBLen=        85.6
 IPart= 22 NShTot=       67367 NShNF=       67367 NShFF=           0 NBatch=         757 AvBLen=        89.0
 IPart=  6 NShTot=       59853 NShNF=       59853 NShFF=           0 NBatch=         725 AvBLen=        82.6
 IPart=  5 NShTot=       72318 NShNF=       72318 NShFF=           0 NBatch=         770 AvBLen=        93.9
 IPart=  2 NShTot=       74450 NShNF=       74450 NShFF=           0 NBatch=         733 AvBLen=       101.6
 IPart= 28 NShTot=       66330 NShNF=       66330 NShFF=           0 NBatch=         720 AvBLen=        92.1
 IPart=  1 NShTot=       63470 NShNF=       63470 NShFF=           0 NBatch=         467 AvBLen=       135.9
 IPart= 13 NShTot=       64892 NShNF=       64892 NShFF=           0 NBatch=         732 AvBLen=        88.7
 IPart=  8 NShTot=       53154 NShNF=       53154 NShFF=           0 NBatch=         451 AvBLen=       117.9
 IPart=  4 NShTot=       75788 NShNF=       75788 NShFF=           0 NBatch=         738 AvBLen=       102.7
 IPart= 11 NShTot=       61055 NShNF=       61055 NShFF=           0 NBatch=         550 AvBLen=       111.0
 IPart= 25 NShTot=       63200 NShNF=       63200 NShFF=           0 NBatch=         470 AvBLen=       134.5
 IPart= 18 NShTot=       65022 NShNF=       65022 NShFF=           0 NBatch=         521 AvBLen=       124.8
 IPart= 24 NShTot=       56158 NShNF=       56158 NShFF=           0 NBatch=         554 AvBLen=       101.4
 IPart=  9 NShTot=       67239 NShNF=       67239 NShFF=           0 NBatch=         676 AvBLen=        99.5
 IPart= 12 NShTot=       60546 NShNF=       60546 NShFF=           0 NBatch=         449 AvBLen=       134.8
 IPart= 20 NShTot=       61577 NShNF=       61577 NShFF=           0 NBatch=         480 AvBLen=       128.3
 IPart=  7 NShTot=       65864 NShNF=       65864 NShFF=           0 NBatch=         745 AvBLen=        88.4
 IPart= 23 NShTot=       65586 NShNF=       65586 NShFF=           0 NBatch=         713 AvBLen=        92.0
 IPart= 19 NShTot=       67009 NShNF=       67009 NShFF=           0 NBatch=         736 AvBLen=        91.0
 IPart= 29 NShTot=       63621 NShNF=       63621 NShFF=           0 NBatch=         529 AvBLen=       120.3
 IPart= 14 NShTot=       56404 NShNF=       56404 NShFF=           0 NBatch=         663 AvBLen=        85.1
 CoulSu:  NxtVal=        3166609.
 ReadGW:  IGet=0 IStart=           1 Next=           1 LGW=           0.
 Remaining memory in FofDFT      399.87 Mw
 CkSvGd:  ISavGI=        -1 IRadAn=       5 IRASav=       5 ISavGd=        -1.
 CalDSu:  NPrtUS=  32 ThrOK=T IAlg=1 NPAlg=2 DoDPD=T LenP=       33930 LenD1P=             0.
 IPart=  0 IRanGd=          0 ScrnBf=T ScrnGd=T RCrit=4.00D+00 DoMicB=T.
 IPart= 19         5156 of         5262 points in       5 batches and       16 microbatches, Max-NSigAt=       8 Max-NSgAt2=       8
 IPart=  3         5176 of         5552 points in       6 batches and       29 microbatches, Max-NSigAt=       8 Max-NSgAt2=       8
 IPart= 21         5176 of         5956 points in       7 batches and       26 microbatches, Max-NSigAt=       8 Max-NSgAt2=       8
 IPart= 23         5226 of         5694 points in       6 batches and       33 microbatches, Max-NSigAt=       8 Max-NSgAt2=       8
 IPart=  9         5179 of         5494 points in       6 batches and       41 microbatches, Max-NSigAt=       8 Max-NSgAt2=       8
 IPart= 31         4640 of         5118 points in       6 batches and       11 microbatches, Max-NSigAt=       8 Max-NSgAt2=       8
 IPart= 12         5192 of         5558 points in       6 batches and       28 microbatches, Max-NSigAt=       8 Max-NSgAt2=       8
 IPart= 16         4961 of         5250 points in       6 batches and       33 microbatches, Max-NSigAt=       8 Max-NSgAt2=       8
 IPart= 20         5028 of         5524 points in       6 batches and       32 microbatches, Max-NSigAt=       8 Max-NSgAt2=       8
 IPart= 10         5785 of         6498 points in       8 batches and       29 microbatches, Max-NSigAt=       8 Max-NSgAt2=       8
 IPart= 28         5760 of         6282 points in       7 batches and       22 microbatches, Max-NSigAt=       8 Max-NSgAt2=       8
 IPart= 11         5876 of         6668 points in       8 batches and       20 microbatches, Max-NSigAt=       8 Max-NSgAt2=       8
 IPart= 22         5433 of         5722 points in       6 batches and       47 microbatches, Max-NSigAt=       8 Max-NSgAt2=       8
 IPart= 26         5510 of         6004 points in       7 batches and       56 microbatches, Max-NSigAt=       8 Max-NSgAt2=       8
 IPart=  2         5269 of         5646 points in       7 batches and       35 microbatches, Max-NSigAt=       8 Max-NSgAt2=       8
 IPart= 15         5597 of         6064 points in       7 batches and       35 microbatches, Max-NSigAt=       8 Max-NSgAt2=       8
 IPart=  7         5364 of         5984 points in       7 batches and       43 microbatches, Max-NSigAt=       8 Max-NSgAt2=       8
 IPart=  1         5174 of         5882 points in       8 batches and       64 microbatches, Max-NSigAt=       8 Max-NSgAt2=       8
 IPart=  4         5689 of         6588 points in       8 batches and       64 microbatches, Max-NSigAt=       8 Max-NSgAt2=       8
 IPart= 18         4402 of         4912 points in       7 batches and       92 microbatches, Max-NSigAt=       8 Max-NSgAt2=       8
 IPart= 17         5784 of         6300 points in       7 batches and       18 microbatches, Max-NSigAt=       8 Max-NSgAt2=       8
 IPart= 29         5644 of         6008 points in       6 batches and       32 microbatches, Max-NSigAt=       8 Max-NSgAt2=       8
 IPart= 30         6071 of         6738 points in       7 batches and       27 microbatches, Max-NSigAt=       8 Max-NSgAt2=       8
 IPart= 25         5520 of         5524 points in       5 batches and       15 microbatches, Max-NSigAt=       8 Max-NSgAt2=       8
 IPart= 13         5783 of         6298 points in       7 batches and       27 microbatches, Max-NSigAt=       8 Max-NSgAt2=       8
 IPart= 14         5930 of         6326 points in       7 batches and       51 microbatches, Max-NSigAt=       8 Max-NSgAt2=       8
 IPart=  5         5360 of         5984 points in       7 batches and       51 microbatches, Max-NSigAt=       8 Max-NSgAt2=       8
 IPart= 24         5502 of         5524 points in       5 batches and       14 microbatches, Max-NSigAt=       8 Max-NSgAt2=       8
 IPart=  6         5902 of         6036 points in       6 batches and       32 microbatches, Max-NSigAt=       8 Max-NSgAt2=       8
 IPart= 27         5727 of         5952 points in       6 batches and       48 microbatches, Max-NSigAt=       8 Max-NSgAt2=       8
 IPart=  0         5103 of         5352 points in       5 batches and       25 microbatches, Max-NSigAt=       8 Max-NSgAt2=       8
 IPart=  8         5555 of         5928 points in       6 batches and       34 microbatches, Max-NSigAt=       8 Max-NSgAt2=       8
 Forces at end of L703
 I=    0 X=   5.675114223722D-05 Y=  -1.758089785945D-03 Z=   5.325690420266D-05
 I=    1 X=  -4.740866402588D-05 Y=   3.541112874941D-05 Z=  -3.271625635335D-05
 I=    2 X=   3.937684138294D-05 Y=  -1.197158385216D-05 Z=  -4.315030218960D-05
 I=    3 X=  -2.519939098145D-05 Y=  -1.208062205325D-05 Z=   5.832457539001D-05
 I=    4 X=   3.323636076669D-05 Y=  -1.172006836614D-05 Z=   1.752835311652D-05
 I=    5 X=  -1.406812425437D-05 Y=   6.252415508598D-05 Z=  -2.804843623422D-05
 I=    6 X=   5.562765463107D-05 Y=  -1.965625501897D-05 Z=   2.173386199233D-06
 I=    7 X=  -5.351212689542D-05 Y=  -2.334571336194D-05 Z=  -7.959600892171D-06
 I=    8 X=   1.194744938715D-05 Y=  -1.916104118305D-05 Z=   3.384828096253D-05
 FrcOut:
 IF    =    48 IFX   =    72 IFXYZ =    96
 IFFX  =   120 IFFFX =   420 IFLen =    24
 IFFLen=   300 IFFFLn=     0 IEDerv=   420
 LEDerv=  1205 IFroze=  1907 ICStrt=108264
 FCEst1:  Generated internal coordinate force constants:
                1             2             3             4             5 
      1  0.720690D+00
      2  0.520523D-03  0.214181D+00
      3  0.138264D-03  0.493546D-03  0.720638D+00
      4 -0.117416D+00  0.142121D-03 -0.484914D-04  0.788303D-01
      5  0.142377D-03 -0.710544D-01  0.430374D-02 -0.171171D-03  0.493790D-01
      6  0.000000D+00  0.000000D+00 -0.362127D+00  0.000000D+00  0.000000D+00
      7 -0.301064D+00  0.152501D-04  0.105915D+00  0.192753D-01 -0.102213D-04
      8  0.374330D-02 -0.710338D-01 -0.212337D-02 -0.204598D-04  0.108395D-01
      9  0.105883D+00  0.264436D-04 -0.178470D+00  0.334233D-01 -0.177237D-04
     10 -0.300859D+00 -0.676846D-03 -0.105987D+00  0.193036D-01  0.389320D-04
     11 -0.440349D-02 -0.710923D-01 -0.267345D-02  0.494283D-04  0.108398D-01
     12 -0.106004D+00 -0.519967D-03 -0.178690D+00 -0.334070D-01 -0.130370D-03
     13 -0.133290D-02  0.000000D+00 -0.675473D-05  0.682341D-05  0.000000D+00
     14 -0.310710D-05 -0.100001D-02 -0.226169D-05  0.000000D+00 -0.384355D-05
     15 -0.676962D-05  0.000000D+00 -0.140570D-02  0.321318D-04 -0.415565D-02
     16  0.244292D-04  0.000000D+00 -0.973719D-05 -0.281085D-03 -0.215764D-05
     17 -0.358093D-02 -0.255371D-04  0.210856D-02 -0.259926D-05  0.000000D+00
     18  0.967289D-05  0.000000D+00  0.219729D-05 -0.477403D-03 -0.366460D-05
     19 -0.528627D-04  0.000000D+00 -0.334263D-04 -0.273117D-03 -0.209647D-05
     20  0.361513D-02  0.296450D-04  0.204839D-02 -0.165057D-05  0.000000D+00
     21 -0.212543D-04  0.000000D+00 -0.591330D-05  0.482033D-03  0.370013D-05
     22  0.104796D-04  0.000000D+00  0.319579D-04  0.554024D-03  0.425275D-05
     23 -0.338005D-04 -0.410319D-05 -0.415515D-02  0.424856D-05  0.000000D+00
     24  0.000000D+00  0.000000D+00  0.579706D-04 -0.452130D-05  0.000000D+00
                6             7             8             9            10 
      6  0.362127D+00
      7  0.000000D+00  0.291422D+00
      8  0.000000D+00 -0.296520D-04  0.493804D-01
      9  0.000000D+00 -0.122603D+00 -0.514166D-04  0.149534D+00
     10  0.000000D+00 -0.964376D-02 -0.933711D-04 -0.167223D-01  0.291211D+00
     11  0.000000D+00  0.245440D-04  0.108397D-01  0.425594D-04  0.731387D-03
     12  0.000000D+00  0.166893D-01  0.985940D-04  0.289393D-01  0.122722D+00
     13  0.000000D+00  0.104695D-04 -0.359982D-02  0.181541D-04 -0.119064D-04
     14  0.000000D+00  0.000000D+00 -0.257120D-04  0.000000D+00  0.000000D+00
     15  0.000000D+00 -0.200204D-05  0.207620D-02 -0.347154D-05 -0.122792D-04
     16  0.000000D+00  0.140429D-03  0.130320D-05  0.243504D-03  0.140634D-03
     17  0.000000D+00  0.129858D-05  0.000000D+00  0.225174D-05  0.130047D-05
     18  0.000000D+00  0.238509D-03  0.221340D-05  0.413575D-03  0.238856D-03
     19  0.000000D+00  0.136448D-03  0.126626D-05  0.236601D-03  0.136647D-03
     20  0.000000D+00  0.000000D+00  0.000000D+00  0.142989D-05  0.000000D+00
     21  0.000000D+00 -0.240822D-03 -0.223486D-05 -0.417585D-03 -0.241172D-03
     22  0.000000D+00 -0.276789D-03 -0.256864D-05 -0.479952D-03 -0.277191D-03
     23  0.000000D+00 -0.212257D-05  0.000000D+00 -0.368054D-05 -0.212566D-05
     24  0.000000D+00  0.225883D-05  0.000000D+00  0.391681D-05  0.226212D-05
               11            12            13            14            15 
     11  0.493833D-01
     12  0.551738D-03  0.149742D+00
     13  0.359813D-02  0.000000D+00  0.720441D+00
     14  0.295430D-04  0.000000D+00  0.616008D-02  0.214350D+00
     15  0.207916D-02  0.916748D-05 -0.136292D-03  0.721676D-02  0.720769D+00
     16  0.000000D+00 -0.243385D-03 -0.299127D+00 -0.176425D-02  0.107012D+00
     17  0.000000D+00 -0.225064D-05  0.169691D-02 -0.710647D-01 -0.244882D-02
     18  0.145110D-05 -0.413373D-03  0.107011D+00 -0.410243D-03 -0.180404D+00
     19  0.000000D+00 -0.236486D-03 -0.302542D+00 -0.367582D-02 -0.104901D+00
     20  0.000000D+00 -0.142919D-05 -0.717007D-02 -0.711607D-01 -0.471224D-02
     21 -0.146517D-05  0.417381D-03 -0.104925D+00 -0.273222D-02 -0.176855D+00
     22 -0.168399D-05  0.479716D-03 -0.117446D+00 -0.716959D-03 -0.198610D-02
     23  0.000000D+00  0.367873D-05 -0.684422D-03 -0.711244D-01 -0.554136D-04
     24  0.000000D+00 -0.391489D-05 -0.196092D-02 -0.407217D-02 -0.362110D+00
               16            17            18            19            20 
     16  0.289181D+00
     17  0.170218D-02  0.494059D-01
     18 -0.123872D+00  0.112389D-03  0.151749D+00
     19 -0.964850D-02 -0.412560D-03 -0.163902D-01  0.293218D+00
     20 -0.606587D-04  0.108386D-01 -0.671883D-05  0.401619D-02  0.494589D-01
     21  0.170290D-01  0.384646D-03  0.289246D-01  0.121479D+00  0.281915D-02
     22  0.195697D-01  0.594397D-03  0.332415D-01  0.190248D-01 -0.400600D-03
     23  0.122550D-03  0.108457D-01  0.304496D-03  0.726199D-04  0.108336D-01
     24 -0.159320D-03 -0.156772D-03 -0.271974D-03 -0.154232D-03 -0.148589D-03
               21            22            23            24 
     21  0.147659D+00
     22 -0.335612D-01  0.788405D-01
     23 -0.471410D-03  0.523052D-03  0.494493D-01
     24  0.276887D-03  0.227408D-02  0.437748D-02  0.362047D+00
 Quadrupole    = 9.34817162D-01-1.87059301D+00 9.35775846D-01
                 1.85439044D-02 2.71814409D-04 1.88493767D-02
 -------------------------------------------------------------------
 Center     Atomic                   Forces (Hartrees/Bohr)
 Number     Number              X              Y              Z
 -------------------------------------------------------------------
      1        6           0.000047409   -0.000035411    0.000032716
      2        1          -0.000039377    0.000011972    0.000043150
      3        1           0.000025199    0.000012081   -0.000058325
      4        1          -0.000033236    0.000011720   -0.000017528
      5        6           0.000014068   -0.000062524    0.000028048
      6        1          -0.000055628    0.000019656   -0.000002173
      7        1           0.000053512    0.000023346    0.000007960
      8        1          -0.000011947    0.000019161   -0.000033848
 -------------------------------------------------------------------
 Cartesian Forces:  Max     0.000062524 RMS     0.000033768
 From PutF, contents of force:
   1   -0.5029628172D-05
   2   -0.2122527138D-05
   3    0.1683491221D-05
   4   -0.4043802605D-05
   5   -0.3213085290D-05
   6    0.2087286461D-04
   7    0.4674356053D-04
   8    0.5083955312D-04
   9    0.3367158838D-04
  10    0.3946800013D-04
  11   -0.2325242777D-04
  12    0.3490982351D-04
  13   -0.2917627393D-05
  14    0.7729407396D-04
  15    0.3751294877D-04
  16    0.5096713382D-04
  17    0.4315030219D-04
  18    0.3611616288D-06
 -----------------------------------------------------------------------------------------------
                       Internal Coordinate Forces (Hartree/Bohr or radian)
  Cent   Atom   N1       Length/X         N2         Alpha/Y        N3         Beta/Z          J
 -----------------------------------------------------------------------------------------------
      1  C 
      2  H        1   0.000043(     1)
      3  H        1   0.000051(     2)      2   0.000077(     8)
      4  H        1   0.000038(     3)      2  -0.000003(     9)      3   0.000021(    14)     0
      5  C        1   0.000000(     4)      2  -0.000003(    10)      3  -0.000004(    15)     0
      6  H        5   0.000047(     5)      1   0.000002(    11)      2  -0.000002(    16)     0
      7  H        5   0.000051(     6)      6   0.000039(    12)      1  -0.000005(    17)     0
      8  H        5   0.000034(     7)      6  -0.000023(    13)      7   0.000035(    18)     0
 -----------------------------------------------------------------------------------------------
 Internal  Forces:  Max     0.000077294 RMS     0.000034613
 Force constants in Cartesian coordinates: 
                1             2             3             4             5 
      1  0.720690D+00
      2  0.520523D-03  0.214181D+00
      3  0.138264D-03  0.493546D-03  0.720638D+00
      4 -0.117416D+00  0.142121D-03 -0.484914D-04  0.788303D-01
      5  0.142377D-03 -0.710544D-01  0.430374D-02 -0.171171D-03  0.493790D-01
      6  0.000000D+00  0.000000D+00 -0.362127D+00  0.000000D+00  0.000000D+00
      7 -0.301064D+00  0.152501D-04  0.105915D+00  0.192753D-01 -0.102213D-04
      8  0.374330D-02 -0.710338D-01 -0.212337D-02 -0.204598D-04  0.108395D-01
      9  0.105883D+00  0.264436D-04 -0.178470D+00  0.334233D-01 -0.177237D-04
     10 -0.300859D+00 -0.676846D-03 -0.105987D+00  0.193036D-01  0.389320D-04
     11 -0.440349D-02 -0.710923D-01 -0.267345D-02  0.494283D-04  0.108398D-01
     12 -0.106004D+00 -0.519967D-03 -0.178690D+00 -0.334070D-01 -0.130370D-03
     13 -0.133290D-02  0.000000D+00 -0.675473D-05  0.682341D-05  0.000000D+00
     14 -0.310710D-05 -0.100001D-02 -0.226169D-05  0.000000D+00 -0.384355D-05
     15 -0.676962D-05  0.000000D+00 -0.140570D-02  0.321318D-04 -0.415565D-02
     16  0.244292D-04  0.000000D+00 -0.973719D-05 -0.281085D-03 -0.215764D-05
     17 -0.358093D-02 -0.255371D-04  0.210856D-02 -0.259926D-05  0.000000D+00
     18  0.967289D-05  0.000000D+00  0.219729D-05 -0.477403D-03 -0.366460D-05
     19 -0.528627D-04  0.000000D+00 -0.334263D-04 -0.273117D-03 -0.209647D-05
     20  0.361513D-02  0.296450D-04  0.204839D-02 -0.165057D-05  0.000000D+00
     21 -0.212543D-04  0.000000D+00 -0.591330D-05  0.482033D-03  0.370013D-05
     22  0.104796D-04  0.000000D+00  0.319579D-04  0.554024D-03  0.425275D-05
     23 -0.338005D-04 -0.410319D-05 -0.415515D-02  0.424856D-05  0.000000D+00
     24  0.000000D+00  0.000000D+00  0.579706D-04 -0.452130D-05  0.000000D+00
                6             7             8             9            10 
      6  0.362127D+00
      7  0.000000D+00  0.291422D+00
      8  0.000000D+00 -0.296520D-04  0.493804D-01
      9  0.000000D+00 -0.122603D+00 -0.514166D-04  0.149534D+00
     10  0.000000D+00 -0.964376D-02 -0.933711D-04 -0.167223D-01  0.291211D+00
     11  0.000000D+00  0.245440D-04  0.108397D-01  0.425594D-04  0.731387D-03
     12  0.000000D+00  0.166893D-01  0.985940D-04  0.289393D-01  0.122722D+00
     13  0.000000D+00  0.104695D-04 -0.359982D-02  0.181541D-04 -0.119064D-04
     14  0.000000D+00  0.000000D+00 -0.257120D-04  0.000000D+00  0.000000D+00
     15  0.000000D+00 -0.200204D-05  0.207620D-02 -0.347154D-05 -0.122792D-04
     16  0.000000D+00  0.140429D-03  0.130320D-05  0.243504D-03  0.140634D-03
     17  0.000000D+00  0.129858D-05  0.000000D+00  0.225174D-05  0.130047D-05
     18  0.000000D+00  0.238509D-03  0.221340D-05  0.413575D-03  0.238856D-03
     19  0.000000D+00  0.136448D-03  0.126626D-05  0.236601D-03  0.136647D-03
     20  0.000000D+00  0.000000D+00  0.000000D+00  0.142989D-05  0.000000D+00
     21  0.000000D+00 -0.240822D-03 -0.223486D-05 -0.417585D-03 -0.241172D-03
     22  0.000000D+00 -0.276789D-03 -0.256864D-05 -0.479952D-03 -0.277191D-03
     23  0.000000D+00 -0.212257D-05  0.000000D+00 -0.368054D-05 -0.212566D-05
     24  0.000000D+00  0.225883D-05  0.000000D+00  0.391681D-05  0.226212D-05
               11            12            13            14            15 
     11  0.493833D-01
     12  0.551738D-03  0.149742D+00
     13  0.359813D-02  0.000000D+00  0.720441D+00
     14  0.295430D-04  0.000000D+00  0.616008D-02  0.214350D+00
     15  0.207916D-02  0.916748D-05 -0.136292D-03  0.721676D-02  0.720769D+00
     16  0.000000D+00 -0.243385D-03 -0.299127D+00 -0.176425D-02  0.107012D+00
     17  0.000000D+00 -0.225064D-05  0.169691D-02 -0.710647D-01 -0.244882D-02
     18  0.145110D-05 -0.413373D-03  0.107011D+00 -0.410243D-03 -0.180404D+00
     19  0.000000D+00 -0.236486D-03 -0.302542D+00 -0.367582D-02 -0.104901D+00
     20  0.000000D+00 -0.142919D-05 -0.717007D-02 -0.711607D-01 -0.471224D-02
     21 -0.146517D-05  0.417381D-03 -0.104925D+00 -0.273222D-02 -0.176855D+00
     22 -0.168399D-05  0.479716D-03 -0.117446D+00 -0.716959D-03 -0.198610D-02
     23  0.000000D+00  0.367873D-05 -0.684422D-03 -0.711244D-01 -0.554136D-04
     24  0.000000D+00 -0.391489D-05 -0.196092D-02 -0.407217D-02 -0.362110D+00
               16            17            18            19            20 
[...]
     16  0.000000D+00  0.000000D+00  0.000000D+00  0.000000D+00  0.000000D+00
     17  0.000000D+00  0.000000D+00  0.000000D+00  0.000000D+00  0.000000D+00
     18  0.000000D+00  0.000000D+00  0.000000D+00  0.000000D+00  0.000000D+00
                6             7             8             9            10 
      6  0.362127D+00
      7  0.000000D+00  0.362127D+00
      8  0.000000D+00  0.000000D+00  0.327252D+00
      9  0.000000D+00  0.000000D+00  0.160174D+00  0.327250D+00
     10  0.000000D+00  0.000000D+00 -0.144469D-03  0.397837D-03  0.240484D+00
     11  0.000000D+00  0.000000D+00  0.428452D-04 -0.428452D-04 -0.717215D-05
     12  0.000000D+00  0.000000D+00 -0.230005D-02  0.230005D-02 -0.228497D-03
     13  0.000000D+00  0.000000D+00  0.230018D-02 -0.230018D-02 -0.235506D-04
     14  0.000000D+00  0.000000D+00 -0.409597D-03 -0.579680D-03 -0.693155D-01
     15  0.000000D+00  0.000000D+00  0.765904D-03  0.274578D-04  0.649553D-04
     16  0.000000D+00  0.000000D+00  0.690006D-02 -0.690005D-02 -0.620326D-04
     17  0.000000D+00  0.000000D+00  0.229160D-05 -0.229160D-05 -0.125352D-04
     18  0.000000D+00  0.000000D+00 -0.112242D-04  0.112242D-04 -0.261201D-04
               11            12            13            14            15 
     11  0.239994D+00
     12 -0.576696D-03  0.327256D+00
     13  0.547457D-03  0.160174D+00  0.327256D+00
     14  0.000000D+00  0.270723D-05 -0.270738D-05  0.153687D+00
     15  0.147415D-04  0.146670D-03  0.277028D-03 -0.119958D+00  0.240507D+00
     16  0.128520D-03 -0.690027D-02  0.690022D-02 -0.812157D-05 -0.197991D-04
     17  0.665538D-04  0.907224D-03  0.735521D-03  0.000000D+00 -0.934032D-05
     18  0.693085D-01 -0.390222D-03  0.345400D-03  0.000000D+00 -0.620763D-05
               16            17            18 
     16  0.207000D-01
     17  0.688055D-05  0.240010D+00
     18 -0.336648D-04  0.119931D+00  0.153684D+00
 Frcnst in PutFF: 
                1             2             3             4             5 
      1  0.240010D+00
      2  0.688055D-05  0.207000D-01
      3  0.665538D-04  0.128520D-03  0.239994D+00
      4 -0.934032D-05 -0.197991D-04  0.147415D-04  0.240507D+00
      5 -0.125352D-04 -0.620326D-04 -0.717215D-05  0.649553D-04  0.240484D+00
      6  0.000000D+00 -0.812157D-05  0.000000D+00 -0.119958D+00 -0.693155D-01
      7  0.000000D+00  0.000000D+00  0.000000D+00  0.000000D+00  0.000000D+00
      8  0.000000D+00  0.000000D+00  0.000000D+00  0.000000D+00  0.000000D+00
      9  0.000000D+00  0.000000D+00  0.000000D+00  0.000000D+00  0.000000D+00
     10  0.907224D-03 -0.690027D-02 -0.576696D-03  0.146670D-03 -0.228497D-03
     11  0.735521D-03  0.690022D-02  0.547457D-03  0.277028D-03 -0.235506D-04
     12  0.119931D+00 -0.336648D-04  0.693085D-01 -0.620763D-05 -0.261201D-04
     13 -0.229160D-05 -0.690005D-02 -0.428452D-04  0.274578D-04  0.397837D-03
     14  0.229160D-05  0.690006D-02  0.428452D-04  0.765904D-03 -0.144469D-03
     15  0.000000D+00  0.000000D+00  0.000000D+00  0.000000D+00  0.000000D+00
     16  0.000000D+00  0.000000D+00  0.000000D+00  0.000000D+00  0.000000D+00
     17  0.000000D+00  0.000000D+00  0.000000D+00  0.000000D+00  0.000000D+00
     18  0.000000D+00  0.000000D+00  0.000000D+00  0.000000D+00  0.000000D+00
                6             7             8             9            10 
      6  0.153687D+00
      7  0.000000D+00  0.362127D+00
      8  0.000000D+00  0.000000D+00  0.362127D+00
      9  0.000000D+00  0.000000D+00  0.000000D+00  0.362127D+00
     10  0.270723D-05  0.000000D+00  0.000000D+00  0.000000D+00  0.327256D+00
     11 -0.270738D-05  0.000000D+00  0.000000D+00  0.000000D+00  0.160174D+00
     12  0.000000D+00  0.000000D+00  0.000000D+00  0.000000D+00 -0.390222D-03
     13 -0.579680D-03  0.000000D+00  0.000000D+00  0.000000D+00  0.230005D-02
     14 -0.409597D-03  0.000000D+00  0.000000D+00  0.000000D+00 -0.230005D-02
     15  0.000000D+00  0.000000D+00  0.000000D+00  0.000000D+00  0.000000D+00
     16  0.000000D+00  0.000000D+00  0.000000D+00  0.000000D+00  0.000000D+00
     17  0.000000D+00  0.000000D+00  0.000000D+00  0.000000D+00  0.000000D+00
     18  0.000000D+00  0.000000D+00  0.000000D+00  0.000000D+00  0.000000D+00
               11            12            13            14            15 
     11  0.327256D+00
     12  0.345400D-03  0.153684D+00
     13 -0.230018D-02  0.112242D-04  0.327250D+00
     14  0.230018D-02 -0.112242D-04  0.160174D+00  0.327252D+00
     15  0.000000D+00  0.000000D+00  0.000000D+00  0.000000D+00  0.362127D+00
     16  0.000000D+00  0.000000D+00  0.000000D+00  0.000000D+00  0.000000D+00
     17  0.000000D+00  0.000000D+00  0.000000D+00  0.000000D+00  0.000000D+00
     18  0.000000D+00  0.000000D+00  0.000000D+00  0.000000D+00  0.000000D+00
               16            17            18 
     16  0.362127D+00
     17  0.000000D+00  0.362127D+00
     18  0.000000D+00  0.000000D+00  0.100000D-02
 Force constants in internal coordinates: 
                1             2             3             4             5 
      1  0.362127D+00
      2  0.000000D+00  0.362127D+00
      3  0.000000D+00  0.000000D+00  0.362127D+00
      4  0.000000D+00  0.000000D+00  0.000000D+00  0.100000D-02
      5  0.000000D+00  0.000000D+00  0.000000D+00  0.000000D+00  0.362127D+00
      6  0.000000D+00  0.000000D+00  0.000000D+00  0.000000D+00  0.000000D+00
      7  0.000000D+00  0.000000D+00  0.000000D+00  0.000000D+00  0.000000D+00
      8  0.000000D+00  0.000000D+00  0.000000D+00  0.000000D+00  0.000000D+00
      9  0.000000D+00  0.000000D+00  0.000000D+00  0.000000D+00  0.000000D+00
     10  0.000000D+00  0.000000D+00  0.000000D+00  0.000000D+00  0.000000D+00
     11  0.000000D+00  0.000000D+00  0.000000D+00  0.000000D+00  0.000000D+00
     12  0.000000D+00  0.000000D+00  0.000000D+00  0.000000D+00  0.000000D+00
     13  0.000000D+00  0.000000D+00  0.000000D+00  0.000000D+00  0.000000D+00
     14  0.000000D+00  0.000000D+00  0.000000D+00  0.000000D+00  0.000000D+00
     15  0.000000D+00  0.000000D+00  0.000000D+00  0.000000D+00  0.000000D+00
     16  0.000000D+00  0.000000D+00  0.000000D+00  0.000000D+00  0.000000D+00
     17  0.000000D+00  0.000000D+00  0.000000D+00  0.000000D+00  0.000000D+00
     18  0.000000D+00  0.000000D+00  0.000000D+00  0.000000D+00  0.000000D+00
                6             7             8             9            10 
      6  0.362127D+00
      7  0.000000D+00  0.362127D+00
      8  0.000000D+00  0.000000D+00  0.327252D+00
      9  0.000000D+00  0.000000D+00  0.160174D+00  0.327250D+00
     10  0.000000D+00  0.000000D+00 -0.144469D-03  0.397837D-03  0.240484D+00
     11  0.000000D+00  0.000000D+00  0.428452D-04 -0.428452D-04 -0.717215D-05
     12  0.000000D+00  0.000000D+00 -0.230005D-02  0.230005D-02 -0.228497D-03
     13  0.000000D+00  0.000000D+00  0.230018D-02 -0.230018D-02 -0.235506D-04
     14  0.000000D+00  0.000000D+00 -0.409597D-03 -0.579680D-03 -0.693155D-01
     15  0.000000D+00  0.000000D+00  0.765904D-03  0.274578D-04  0.649553D-04
     16  0.000000D+00  0.000000D+00  0.690006D-02 -0.690005D-02 -0.620326D-04
     17  0.000000D+00  0.000000D+00  0.229160D-05 -0.229160D-05 -0.125352D-04
     18  0.000000D+00  0.000000D+00 -0.112242D-04  0.112242D-04 -0.261201D-04
               11            12            13            14            15 
     11  0.239994D+00
     12 -0.576696D-03  0.327256D+00
     13  0.547457D-03  0.160174D+00  0.327256D+00
     14  0.000000D+00  0.270723D-05 -0.270738D-05  0.153687D+00
     15  0.147415D-04  0.146670D-03  0.277028D-03 -0.119958D+00  0.240507D+00
     16  0.128520D-03 -0.690027D-02  0.690022D-02 -0.812157D-05 -0.197991D-04
     17  0.665538D-04  0.907224D-03  0.735521D-03  0.000000D+00 -0.934032D-05
     18  0.693085D-01 -0.390222D-03  0.345400D-03  0.000000D+00 -0.620763D-05
               16            17            18 
     16  0.207000D-01
     17  0.688055D-05  0.240010D+00
     18 -0.336648D-04  0.119931D+00  0.153684D+00
 Final forces over variables, Energy=-7.96783495D+01:
 -5.02962817D-06-2.12252714D-06 1.68349122D-06-4.04380260D-06
 -3.21308529D-06 2.08728646D-05 4.67435605D-05 5.08395531D-05
  3.36715884D-05 3.94680001D-05-2.32524278D-05 3.49098235D-05
 -2.91762739D-06 7.72940740D-05 3.75129488D-05 5.09671338D-05
  4.31503022D-05 3.61161629D-07

 GradGradGradGradGradGradGradGradGradGradGradGradGradGradGradGradGradGrad
 Berny optimization.
 Search for a local minimum.
 Step number   1 out of a maximum of   50
 All quantities printed in internal units (Hartrees-Bohrs-Radians)
 Second derivative matrix not updated -- first step.
 The second derivative matrix:
                         BABS3     BABS2     AABS2     BABS1     AABS1
           BABS3        0.24001
           BABS2        0.00001   0.02070
           AABS2        0.00007   0.00013   0.23999
           BABS1       -0.00001  -0.00002   0.00001   0.24051
           AABS1       -0.00001  -0.00006  -0.00001   0.00006   0.24048
           D3          -0.00000  -0.00001  -0.00000  -0.11996  -0.06932
           R21         -0.00000   0.00000   0.00000  -0.00000  -0.00000
           R22          0.00000  -0.00000   0.00000   0.00000   0.00000
           R23          0.00000   0.00000   0.00000   0.00000   0.00000
           A22          0.00091  -0.00690  -0.00058   0.00015  -0.00023
           A23          0.00074   0.00690   0.00055   0.00028  -0.00002
           D23          0.11993  -0.00003   0.06931  -0.00001  -0.00003
           A3          -0.00000  -0.00690  -0.00004   0.00003   0.00040
           A2           0.00000   0.00690   0.00004   0.00077  -0.00014
           R3           0.00000   0.00000   0.00000   0.00000   0.00000
           R2          -0.00000  -0.00000  -0.00000   0.00000   0.00000
           R1           0.00000   0.00000   0.00000   0.00000   0.00000
           RTS          0.00000   0.00000   0.00000   0.00000  -0.00000
                          D3        R21       R22       R23       A22
           D3           0.15369
           R21         -0.00000   0.36213
           R22          0.00000   0.00000   0.36213
           R23         -0.00000   0.00000   0.00000   0.36213
           A22          0.00000  -0.00000   0.00000   0.00000   0.32726
           A23         -0.00000   0.00000  -0.00000   0.00000   0.16017
           D23          0.00000  -0.00000   0.00000   0.00000  -0.00039
           A3          -0.00058   0.00000   0.00000  -0.00000   0.00230
           A2          -0.00041  -0.00000  -0.00000   0.00000  -0.00230
           R3           0.00000  -0.00000   0.00000  -0.00000  -0.00000
           R2          -0.00000   0.00000  -0.00000  -0.00000   0.00000
           R1           0.00000   0.00000   0.00000   0.00000   0.00000
           RTS         -0.00000  -0.00000   0.00000  -0.00000   0.00000
                          A23       D23       A3        A2        R3
           A23          0.32726
           D23          0.00035   0.15368
           A3          -0.00230   0.00001   0.32725
           A2           0.00230  -0.00001   0.16017   0.32725
           R3          -0.00000  -0.00000   0.00000  -0.00000   0.36213
           R2          -0.00000   0.00000   0.00000   0.00000  -0.00000
           R1           0.00000   0.00000   0.00000   0.00000   0.00000
           RTS         -0.00000   0.00000   0.00000  -0.00000   0.00000
                          R2        R1        RTS
           R2           0.36213
           R1           0.00000   0.36213
           RTS          0.00000   0.00000   0.00100
 ITU=  0
     Eigenvalues ---    0.02070   0.23993   0.24007   0.24043   0.24056
     Eigenvalues --- 1000.000001000.000001000.000001000.000001000.00000
     Eigenvalues --- 1000.000001000.000001000.000001000.000001000.00000
     Eigenvalues --- 1000.000001000.000001000.00000
 RFO step:  Lambda= 0.00000000D+00 EMin= 2.06999054D-02
 Linear search not attempted -- first point.
 Variable       Old X    -DE/DX   Delta X   Delta X   Delta X     New X
                                 (Linear)    (Quad)   (Total)
  BABS3       1.56006  -0.00001   0.00000  -0.00002  -0.00002   1.56004
  BABS2       1.03865  -0.00000   0.00000  -0.00010  -0.00010   1.03855
  AABS2       1.56916   0.00000   0.00000   0.00001   0.00001   1.56917
  BABS1       1.56312  -0.00000   0.00000  -0.00002  -0.00002   1.56310
  AABS1       1.56987  -0.00000   0.00000  -0.00001  -0.00001   1.56986
    D3        3.13823   0.00002   0.00000   0.00000   0.00000   3.13823
   R21        2.03750   0.00005   0.00000   0.00000   0.00000   2.03750
   R22        2.03750   0.00005   0.00000   0.00000   0.00000   2.03750
   R23        2.03750   0.00003   0.00000   0.00000   0.00000   2.03750
   A22        2.09391   0.00004   0.00000   0.00000   0.00000   2.09391
   A23        2.09476  -0.00002   0.00000   0.00000   0.00000   2.09476
   D23        3.13823   0.00003   0.00000   0.00000   0.00000   3.13823
    A3        2.09476  -0.00000   0.00000   0.00000   0.00000   2.09476
    A2        2.09391   0.00008   0.00000   0.00000   0.00000   2.09391
    R3        2.03750   0.00004   0.00000   0.00000   0.00000   2.03750
    R2        2.03750   0.00005   0.00000   0.00000   0.00000   2.03750
    R1        2.03750   0.00004   0.00000   0.00000   0.00000   2.03750
   RTS       18.89726   0.00000   0.00000   0.00000   0.00000  18.89726
         Item               Value     Threshold  Converged?
 Maximum Force            0.000005     0.000450     YES
 RMS     Force            0.000003     0.000300     YES
 Maximum Displacement     0.000103     0.001800     YES
 RMS     Displacement     0.000025     0.001200     YES
 Predicted change in Energy=-2.230852D-10
 Optimization completed.
    -- Stationary point found.
                       ----------------------------
                       !   Optimized Parameters   !
                       ! (Angstroms and Degrees)  !
 ----------------------                            ----------------------
 !      Name          Value   Derivative information (Atomic Units)     !
 ------------------------------------------------------------------------
 !      BABS3       89.3847   -DE/DX =    0.0                           !
 !      BABS2       59.5103   -DE/DX =    0.0                           !
 !      AABS2       89.9062   -DE/DX =    0.0                           !
 !      BABS1       89.5602   -DE/DX =    0.0                           !
 !      AABS1       89.947    -DE/DX =    0.0                           !
 !       D3        179.8076   -DE/DX =    0.0                           !
 !       R21         1.0782   -DE/DX =    0.0                           !
 !       R22         1.0782   -DE/DX =    0.0001                        !
 !       R23         1.0782   -DE/DX =    0.0                           !
 !       A22       119.9721   -DE/DX =    0.0                           !
 !       A23       120.0207   -DE/DX =    0.0                           !
 !       D23       179.8076   -DE/DX =    0.0                           !
 !       A3        120.0207   -DE/DX =    0.0                           !
 !       A2        119.9721   -DE/DX =    0.0001                        !
 !       R3          1.0782   -DE/DX =    0.0                           !
 !       R2          1.0782   -DE/DX =    0.0001                        !
 !       R1          1.0782   -DE/DX =    0.0                           !
 !       RTS         10.0     -DE/DX =    0.0                           !
 ------------------------------------------------------------------------
 GradGradGradGradGradGradGradGradGradGradGradGradGradGradGradGradGradGrad

 ---------------------------------------------------------------------------------------------------
                            Z-MATRIX (ANGSTROMS AND DEGREES)
   CD    Cent   Atom    N1       Length/X        N2       Alpha/Y        N3        Beta/Z          J
 ---------------------------------------------------------------------------------------------------
      1      1  C 
      2      2  H        1   1.078200(     1)
      3      3  H        1   1.078200(     2)      2  119.972(     8)
      4      4  H        1   1.078200(     3)      2  120.021(     9)      3  179.808(    14)      0
      5      5  C        1  10.000000(     4)      2   89.947(    10)      3   89.560(    15)      0
      6      6  H        5   1.078200(     5)      1   89.906(    11)      2   59.510(    16)      0
      7      7  H        5   1.078200(     6)      6  119.972(    12)      1   89.385(    17)      0
      8      8  H        5   1.078200(     7)      6  120.021(    13)      7  179.808(    18)      0
 ---------------------------------------------------------------------------------------------------
                         Z-Matrix orientation:                         
 ---------------------------------------------------------------------
 Center     Atomic      Atomic             Coordinates (Angstroms)
 Number     Number       Type             X           Y           Z
 ---------------------------------------------------------------------
      1          6           0        0.000000    0.000000    0.000000
      2          1           0        0.000000    0.000000    1.078200
      3          1           0        0.934011    0.000000   -0.538645
      4          1           0       -0.933548   -0.003135   -0.539437
      5          6           0        0.076759   -9.999701    0.009250
      6          1           0       -0.852337  -10.004562    0.556308
      7          1           0        1.014707   -9.982861    0.540744
      8          1           0        0.068077  -10.014808   -1.068809
 ---------------------------------------------------------------------
                    Distance matrix (angstroms):
                    1          2          3          4          5
     1  C    0.000000
     2  H    1.078200   0.000000
     3  H    1.078200   1.867235   0.000000
     4  H    1.078200   1.867692   1.867562   0.000000
     5  C   10.000000  10.056966  10.051323  10.062461   0.000000
     6  H   10.056203  10.054357  10.221605  10.061600   1.078200
     7  H   10.048858  10.048682  10.041370  10.225332   1.078200
     8  H   10.071910  10.242591  10.066146  10.075569   1.078200
                    6          7          8
     6  H    0.000000
     7  H    1.867235   0.000000
     8  H    1.867692   1.867562   0.000000
 Symmetry turned off by external request.
 Stoichiometry    C2H6(3)
 Framework group  C1[X(C2H6)]
 Deg. of freedom    18
 Full point group                 C1      NOp   1
 Rotational constants (GHZ):     71.8958752      0.6696527      0.6696519

 Test job not archived.
 1\1\GINC-NODE-6-7\POpt\UwB97XD\Aug-CC-pVTZ\C2H6(3)\CAVALLOTTI\27-May-2
 023\1\\# uwb97xd/aug-cc-pvtz opt=(noeig,intern,maxcyc=50) # int=ultraf
 ine nosym iop(7/33=1) guess=(mix,always)\\geom 0\\0,3\C\H,1,R1\H,1,R2,
 2,A2\H,1,R3,2,A3,3,D3,0\C,1,RTS,2,AABS1,3,BABS1,0\H,5,R21,1,AABS2,2,BA
 BS2,0\H,5,R22,6,A22,1,BABS3,0\H,5,R23,6,A23,7,D23,0\\BABS3=89.3847\BAB
 S2=59.5103\AABS2=89.9062\BABS1=89.5602\AABS1=89.947\D3=179.8076\R21=1.
 0782\R22=1.0782\R23=1.0782\A22=119.9721\A23=120.0207\D23=179.8076\A3=1
 20.0207\A2=119.9721\R3=1.0782\R2=1.0782\R1=1.0782\RTS=10.\\Version=EM6
 4L-G09RevD.01\HF=-79.6783495\S2=2.007929\S2-1=0.\S2A=2.000036\RMSD=6.7
 30e-09\RMSF=3.377e-05\Dipole=0.0000568,-0.0017581,0.0000533\Quadrupole
 =0.9348172,-1.870593,0.9357758,0.0185439,0.0002718,0.0188494\PG=C01 [X
 (C2H6)]\\@


 ON INDUCTION, OR "WHY DO YOU BELIEVE THE SUN WILL RISE TOMORROW?":

 ... THE FARMER WHO HAS FED THE CHICKEN EVERY DAY THROUGHOUT ITS
 LIFE AT LAST WRINGS ITS NECK INSTEAD, SHOWING THAT MORE REFINED VIEWS
 AS TO THE UNIFORMITY OF NATURE WOULD HAVE BEEN USEFUL TO THE CHICKEN.

                               -- BERTRAND RUSSELL
 Job cpu time:       0 days  0 hours  9 minutes 52.4 seconds.
 File lengths (MBytes):  RWF=    106 Int=      0 D2E=      0 Chk=      7 Scr=      1
 Normal termination of Gaussian 09 at Sat May 27 09:32:38 2023.
