 Entering Gaussian System, Link 0=g09
 Input=geom.com
 Output=geom.log
 Initial command:
 /software/cinetica/g09d1/g09d01/d01/build-node-6-2-59348/src/main/l1.exe "/scratch/cc/138604/Gau-25177.inp" -scrdir="/scratch/cc/138604/"
 Entering Link 1 = /software/cinetica/g09d1/g09d01/d01/build-node-6-2-59348/src/main/l1.exe PID=     25178.
  
 Copyright (c) 1988,1990,1992,1993,1995,1998,2003,2009,2013,
            Gaussian, Inc.  All Rights Reserved.
  
 This is part of the Gaussian(R) 09 program.  It is based on
 the Gaussian(R) 03 system (copyright 2003, Gaussian, Inc.),
 the Gaussian(R) 98 system (copyright 1998, Gaussian, Inc.),
 the Gaussian(R) 94 system (copyright 1995, Gaussian, Inc.),
 the Gaussian 92(TM) system (copyright 1992, Gaussian, Inc.),
 the Gaussian 90(TM) system (copyright 1990, Gaussian, Inc.),
 the Gaussian 88(TM) system (copyright 1988, Gaussian, Inc.),
 the Gaussian 86(TM) system (copyright 1986, Carnegie Mellon
 University), and the Gaussian 82(TM) system (copyright 1983,
 Carnegie Mellon University). Gaussian is a federally registered
 trademark of Gaussian, Inc.
  
 This software contains proprietary and confidential information,
 including trade secrets, belonging to Gaussian, Inc.
  
 This software is provided under written license and may be
 used, copied, transmitted, or stored only in accord with that
 written license.
  
 The following legend is applicable only to US Government
 contracts under FAR:
  
                    RESTRICTED RIGHTS LEGEND
  
 Use, reproduction and disclosure by the US Government is
 subject to restrictions as set forth in subparagraphs (a)
 and (c) of the Commercial Computer Software - Restricted
 Rights clause in FAR 52.227-19.
  
 Gaussian, Inc.
 340 Quinnipiac St., Bldg. 40, Wallingford CT 06492
  
  
 ---------------------------------------------------------------
 Warning -- This program may not be used in any manner that
 competes with the business of Gaussian, Inc. or will provide
 assistance to any competitor of Gaussian, Inc.  The licensee
 of this program is prohibited from giving any competitor of
 Gaussian, Inc. access to this program.  By using this program,
 the user acknowledges that Gaussian, Inc. is engaged in the
 business of creating and licensing software in the field of
 computational chemistry and represents and warrants to the
 licensee that it is not a competitor of Gaussian, Inc. and that
 it will not use this program in any manner prohibited above.
 ---------------------------------------------------------------
  

 Cite this work as:
 Gaussian 09, Revision D.01,
 M. J. Frisch, G. W. Trucks, H. B. Schlegel, G. E. Scuseria, 
 M. A. Robb, J. R. Cheeseman, G. Scalmani, V. Barone, B. Mennucci, 
 G. A. Petersson, H. Nakatsuji, M. Caricato, X. Li, H. P. Hratchian, 
 A. F. Izmaylov, J. Bloino, G. Zheng, J. L. Sonnenberg, M. Hada, 
 M. Ehara, K. Toyota, R. Fukuda, J. Hasegawa, M. Ishida, T. Nakajima, 
 Y. Honda, O. Kitao, H. Nakai, T. Vreven, J. A. Montgomery, Jr., 
 J. E. Peralta, F. Ogliaro, M. Bearpark, J. J. Heyd, E. Brothers, 
 K. N. Kudin, V. N. Staroverov, T. Keith, R. Kobayashi, J. Normand, 
 K. Raghavachari, A. Rendell, J. C. Burant, S. S. Iyengar, J. Tomasi, 
 M. Cossi, N. Rega, J. M. Millam, M. Klene, J. E. Knox, J. B. Cross, 
 V. Bakken, C. Adamo, J. Jaramillo, R. Gomperts, R. E. Stratmann, 
 O. Yazyev, A. J. Austin, R. Cammi, C. Pomelli, J. W. Ochterski, 
 R. L. Martin, K. Morokuma, V. G. Zakrzewski, G. A. Voth, 
 P. Salvador, J. J. Dannenberg, S. Dapprich, A. D. Daniels, 
 O. Farkas, J. B. Foresman, J. V. Ortiz, J. Cioslowski, 
 and D. J. Fox, Gaussian, Inc., Wallingford CT, 2013.
 
 ******************************************
 Gaussian 09:  EM64L-G09RevD.01 24-Apr-2013
                24-May-2023 
 ******************************************
 %mem=400MW
 %chk=tmp
 %NProcShared= 16
 Will use up to   16 processors via shared memory.
 ----------------------------------------------------------------------
 # uwb97xd/aug-cc-pvtz opt(internal,maxcycle=100) # int=ultrafine nosym
  freq guess(mix,always)
 ----------------------------------------------------------------------
 1/6=100,10=7,14=-1,18=40,26=4,38=1/1,3;
 2/12=2,15=1,17=6,18=5,29=3,40=1/2;
 3/5=16,6=1,7=10,11=2,16=1,25=1,30=1,71=1,74=-58,75=-5,116=2/1,2,3;
 4/13=-1/1;
 5/5=2,38=5/2;
 6/7=2,8=2,9=2,10=2,28=1/1;
 7/29=1,30=1/1,2,3,16;
 1/6=100,10=7,14=-1,18=40,26=4/3(2);
 2/15=1,29=3/2;
 99//99;
 2/15=1,29=3/2;
 3/5=16,6=1,7=10,11=2,16=1,25=1,30=1,71=1,74=-58,75=-5,116=2/1,2,3;
 4/13=-1/1;
 5/5=2,38=5/2;
 7/30=1/1,2,3,16;
 1/6=100,14=-1,18=40,26=4/3(-5);
 2/15=1,29=3/2;
 6/7=2,8=2,9=2,10=2,19=2,28=1/1;
 99/9=1/99;
 ------
 geom 0
 ------
 Symbolic Z-matrix:
 Charge =  0 Multiplicity = 2
 C21
 H22                  C21  R21
 H23                  C21  R22      H22  A22
 H24                  C21  R23      H22  A23      H23  D23      0
       Variables:
  R21                   1.0782                   
  R22                   1.0782                   
  R23                   1.0782                   
  A22                 119.9721                   
  A23                 120.0207                   
  D23                 179.8076                   
 

 GradGradGradGradGradGradGradGradGradGradGradGradGradGradGradGradGradGrad
 Berny optimization.
 Initialization pass.
                       ----------------------------
                       !    Initial Parameters    !
                       ! (Angstroms and Degrees)  !
 ----------------------                            ----------------------
 !      Name          Value   Derivative information (Atomic Units)     !
 ------------------------------------------------------------------------
 !       R21         1.0782   estimate D2E/DX2                          !
 !       R22         1.0782   estimate D2E/DX2                          !
 !       R23         1.0782   estimate D2E/DX2                          !
 !       A22       119.9721   estimate D2E/DX2                          !
 !       A23       120.0207   estimate D2E/DX2                          !
 !       D23       179.8076   estimate D2E/DX2                          !
 ------------------------------------------------------------------------
 Trust Radius=3.00D-01 FncErr=1.00D-07 GrdErr=1.00D-06
 Number of steps in this run=    100 maximum allowed number of steps=    100.
 GradGradGradGradGradGradGradGradGradGradGradGradGradGradGradGradGradGrad

 ---------------------------------------------------------------------------------------------------
                            Z-MATRIX (ANGSTROMS AND DEGREES)
   CD    Cent   Atom    N1       Length/X        N2       Alpha/Y        N3        Beta/Z          J
 ---------------------------------------------------------------------------------------------------
      1      1  C 
      2      2  H        1   1.078200(     1)
      3      3  H        1   1.078200(     2)      2  119.972(     4)
      4      4  H        1   1.078200(     3)      2  120.021(     5)      3  179.808(     6)      0
 ---------------------------------------------------------------------------------------------------
                         Z-Matrix orientation:                         
 ---------------------------------------------------------------------
 Center     Atomic      Atomic             Coordinates (Angstroms)
 Number     Number       Type             X           Y           Z
 ---------------------------------------------------------------------
      1          6           0        0.000000    0.000000    0.000000
      2          1           0        0.000000    0.000000    1.078200
      3          1           0        0.934011    0.000000   -0.538645
      4          1           0       -0.933548   -0.003135   -0.539437
 ---------------------------------------------------------------------
                    Distance matrix (angstroms):
                    1          2          3          4
     1  C    0.000000
     2  H    1.078200   0.000000
     3  H    1.078200   1.867235   0.000000
     4  H    1.078200   1.867692   1.867562   0.000000
 Symmetry turned off by external request.
 Stoichiometry    CH3(2)
 Framework group  C1[X(CH3)]
 Deg. of freedom     6
 Full point group                 C1      NOp   1
 Rotational constants (GHZ):    287.6527286    287.4850946    143.7846595
 Standard basis: Aug-CC-pVTZ (5D, 7F)
   115 basis functions,   153 primitive gaussians,   130 cartesian basis functions
     5 alpha electrons        4 beta electrons
       nuclear repulsion energy         9.6844296245 Hartrees.
 NAtoms=    4 NActive=    4 NUniq=    4 SFac= 1.00D+00 NAtFMM=   60 NAOKFM=F Big=F
 Integral buffers will be    131072 words long.
 Raffenetti 2 integral format.
 Two-electron integral symmetry is turned off.
 Nuclear repulsion after empirical dispersion term =        9.6841720899 Hartrees.
 One-electron integrals computed using PRISM.
 NBasis=   115 RedAO= T EigKep=  1.02D-04  NBF=   115
 NBsUse=   115 1.00D-06 EigRej= -1.00D+00 NBFU=   115
 ExpMin= 2.53D-02 ExpMax= 8.24D+03 ExpMxC= 2.81D+02 IAcc=3 IRadAn=         5 AccDes= 0.00D+00
 Harris functional with IExCor= 4639 and IRadAn=       5 diagonalized for initial guess.
 HarFok:  IExCor= 4639 AccDes= 0.00D+00 IRadAn=         5 IDoV= 1 UseB2=F ITyADJ=14
 ICtDFT=  3500011 ScaDFX=  1.000000  1.000000  1.000000  1.000000
 FoFCou: FMM=F IPFlag=           0 FMFlag=      100000 FMFlg1=           0
         NFxFlg=           0 DoJE=T BraDBF=F KetDBF=T FulRan=T
         wScrn=  0.000000 ICntrl=     500 IOpCl=  0 I1Cent=   200000004 NGrid=           0
         NMat0=    1 NMatS0=      1 NMatT0=    0 NMatD0=    1 NMtDS0=    0 NMtDT0=    0
 Symmetry not used in FoFCou.
 Mixing orbitals, IMix= 1 IMixAn=  0 NRI=1 NE=    5 Coef=  7.07106781D-01  7.07106781D-01
 Mixing orbitals, IMix= 1 IMixAn=  0 NRI=1 NE=    4 Coef= -7.07106781D-01  7.07106781D-01
 Initial guess <Sx>= 0.0000 <Sy>= 0.0000 <Sz>= 0.5000 <S**2>= 1.0000 S= 0.6180
 Keep R1 and R2 ints in memory in canonical form, NReq=91047336.
 Requested convergence on RMS density matrix=1.00D-08 within 128 cycles.
 Requested convergence on MAX density matrix=1.00D-06.
 Requested convergence on             energy=1.00D-06.
 No special actions if energy rises.
 SCF Done:  E(UwB97XD) =  -39.8391758254     A.U. after   12 cycles
            NFock= 12  Conv=0.99D-08     -V/T= 2.0068
 <Sx>= 0.0000 <Sy>= 0.0000 <Sz>= 0.5000 <S**2>= 0.7540 S= 0.5020
 <L.S>=  0.00000000000    
 Annihilation of the first spin contaminant:
 S**2 before annihilation     0.7540,   after     0.7500

 **********************************************************************

            Population analysis using the SCF density.

 **********************************************************************

 Alpha  occ. eigenvalues --  -10.29562  -0.78676  -0.50921  -0.50913  -0.31505
 Alpha virt. eigenvalues --    0.03022   0.04910   0.04911   0.09094   0.13055
 Alpha virt. eigenvalues --    0.13057   0.13242   0.20089   0.20090   0.21811
 Alpha virt. eigenvalues --    0.25913   0.25915   0.31999   0.32377   0.32379
 Alpha virt. eigenvalues --    0.34200   0.35543   0.37724   0.39553   0.39557
 Alpha virt. eigenvalues --    0.40317   0.40318   0.42090   0.42090   0.56863
 Alpha virt. eigenvalues --    0.56885   0.68790   0.68804   0.75388   0.75392
 Alpha virt. eigenvalues --    0.77395   0.77395   0.80511   0.83401   0.89500
 Alpha virt. eigenvalues --    0.93185   0.93624   0.93626   0.94811   0.94813
 Alpha virt. eigenvalues --    1.02407   1.02419   1.03795   1.06031   1.08567
 Alpha virt. eigenvalues --    1.08580   1.09146   1.09149   1.23460   1.35214
 Alpha virt. eigenvalues --    1.35215   1.47354   1.49126   1.49765   1.49766
 Alpha virt. eigenvalues --    1.50695   1.55624   1.55636   1.62130   1.78129
 Alpha virt. eigenvalues --    1.78139   1.93869   1.93879   1.96279   2.05014
 Alpha virt. eigenvalues --    2.05025   2.06417   2.69577   2.73995   2.73997
 Alpha virt. eigenvalues --    2.97397   2.98723   2.98729   3.29166   3.34251
 Alpha virt. eigenvalues --    3.34264   3.37026   3.37027   3.42812   3.42821
 Alpha virt. eigenvalues --    3.43050   3.47025   3.65813   3.70490   3.73405
 Alpha virt. eigenvalues --    3.73408   3.99786   3.99791   4.14369   4.14399
 Alpha virt. eigenvalues --    4.14638   4.39971   4.56669   4.56671   4.59553
 Alpha virt. eigenvalues --    4.59557   4.79077   4.79536   5.04723   5.04779
 Alpha virt. eigenvalues --    5.09711   5.09738   5.17649   5.17663   5.28074
 Alpha virt. eigenvalues --    6.05837   6.18383   6.18421   6.40450  15.90272
  Beta  occ. eigenvalues --  -10.28441  -0.74176  -0.49696  -0.49688
  Beta virt. eigenvalues --   -0.00037   0.04418   0.05671   0.05672   0.13995
  Beta virt. eigenvalues --    0.13997   0.14292   0.14324   0.20350   0.20350
  Beta virt. eigenvalues --    0.24098   0.26487   0.26489   0.33244   0.33247
  Beta virt. eigenvalues --    0.34319   0.34537   0.36501   0.38381   0.40094
  Beta virt. eigenvalues --    0.40097   0.40780   0.40780   0.42389   0.42390
  Beta virt. eigenvalues --    0.59234   0.60354   0.68884   0.68898   0.75989
  Beta virt. eigenvalues --    0.75993   0.79195   0.79196   0.80606   0.84505
  Beta virt. eigenvalues --    0.90665   0.93548   0.94234   0.94236   0.95760
  Beta virt. eigenvalues --    0.95763   1.02424   1.02435   1.03609   1.06496
  Beta virt. eigenvalues --    1.09147   1.09150   1.09826   1.09839   1.23631
  Beta virt. eigenvalues --    1.35365   1.35366   1.47449   1.50269   1.50269
  Beta virt. eigenvalues --    1.50830   1.51993   1.56202   1.56215   1.64867
  Beta virt. eigenvalues --    1.78818   1.78827   1.95029   1.95040   1.96049
  Beta virt. eigenvalues --    2.05335   2.05346   2.08618   2.75424   2.75426
  Beta virt. eigenvalues --    2.75664   2.99329   3.02129   3.02135   3.33625
  Beta virt. eigenvalues --    3.36999   3.37008   3.40248   3.40249   3.43491
  Beta virt. eigenvalues --    3.44251   3.44258   3.50200   3.68588   3.70793
  Beta virt. eigenvalues --    3.73839   3.73842   4.01342   4.01346   4.15626
  Beta virt. eigenvalues --    4.15961   4.15990   4.40839   4.57020   4.57022
  Beta virt. eigenvalues --    4.59770   4.59775   4.78591   4.81536   5.05121
  Beta virt. eigenvalues --    5.05179   5.12832   5.12858   5.18211   5.18223
  Beta virt. eigenvalues --    5.29451   6.07109   6.19009   6.19048   6.41355
  Beta virt. eigenvalues --   15.92893
          Condensed to atoms (all electrons):
               1          2          3          4
     1  C    6.006269   0.347048   0.347045   0.347043
     2  H    0.347048   0.285364   0.009233   0.009218
     3  H    0.347045   0.009233   0.285371   0.009224
     4  H    0.347043   0.009218   0.009224   0.285373
          Atomic-Atomic Spin Densities.
               1          2          3          4
     1  C    0.974246   0.016958   0.016941   0.016905
     2  H    0.016958  -0.028839   0.001787   0.001790
     3  H    0.016941   0.001787  -0.028867   0.001788
     4  H    0.016905   0.001790   0.001788  -0.028878
 Mulliken charges and spin densities:
               1          2
     1  C   -1.047405   1.025050
     2  H    0.349136  -0.008305
     3  H    0.349127  -0.008351
     4  H    0.349142  -0.008395
 Sum of Mulliken charges =  -0.00000   1.00000
 Mulliken charges and spin densities with hydrogens summed into heavy atoms:
               1          2
     1  C   -0.000000   1.000000
 Electronic spatial extent (au):  <R**2>=             29.9005
 Charge=             -0.0000 electrons
 Dipole moment (field-independent basis, Debye):
    X=              0.0001    Y=             -0.0022    Z=              0.0000  Tot=              0.0022
 Quadrupole moment (field-independent basis, Debye-Ang):
   XX=             -7.1896   YY=             -9.0863   ZZ=             -7.1900
   XY=              0.0032   XZ=              0.0009   YZ=              0.0018
 Traceless Quadrupole moment (field-independent basis, Debye-Ang):
   XX=              0.6324   YY=             -1.2644   ZZ=              0.6320
   XY=              0.0032   XZ=              0.0009   YZ=              0.0018
 Octapole moment (field-independent basis, Debye-Ang**2):
  XXX=             -0.0002  YYY=              0.0057  ZZZ=              0.9196  XYY=             -0.0004
  XXY=             -0.0006  XXZ=             -0.9199  XZZ=             -0.0011  YZZ=              0.0012
  YYZ=             -0.0001  XYZ=             -0.0015
 Hexadecapole moment (field-independent basis, Debye-Ang**3):
 XXXX=            -14.8821 YYYY=            -11.9825 ZZZZ=            -14.8821 XXXY=             -0.0003
 XXXZ=             -0.0004 YYYX=             -0.0046 YYYZ=             -0.0026 ZZZX=              0.0005
 ZZZY=             -0.0016 XXYY=             -4.8994 XXZZ=             -4.9609 YYZZ=             -4.8993
 XXYZ=              0.0014 YYXZ=             -0.0002 ZZXY=             -0.0001
 N-N= 9.684172089888D+00 E-N=-1.112573261952D+02  KE= 3.956918491126D+01
                          Isotropic Fermi Contact Couplings
        Atom                 a.u.       MegaHertz       Gauss      10(-4) cm-1
     1  C(13)              0.01738      19.53741       6.97143       6.51698
     2  H(1)              -0.01402     -62.67668     -22.36460     -20.90669
     3  H(1)              -0.01402     -62.68920     -22.36906     -20.91087
     4  H(1)              -0.01403     -62.70078     -22.37320     -20.91473
 --------------------------------------------------------
       Center         ----  Spin Dipole Couplings  ----
                      3XX-RR        3YY-RR        3ZZ-RR
 --------------------------------------------------------
     1   Atom       -0.568037      1.136120     -0.568084
     2   Atom       -0.077823      0.002329      0.075494
     3   Atom        0.037224      0.002331     -0.039555
     4   Atom        0.037110      0.002331     -0.039441
 --------------------------------------------------------
                        XY            XZ            YZ
 --------------------------------------------------------
     1   Atom       -0.002861     -0.000007     -0.001651
     2   Atom       -0.000135      0.000001     -0.000010
     3   Atom       -0.000075     -0.066354     -0.000112
     4   Atom        0.000192      0.066419      0.000112
 --------------------------------------------------------


 ---------------------------------------------------------------------------------
              Anisotropic Spin Dipole Couplings in Principal Axis System
 ---------------------------------------------------------------------------------

       Atom             a.u.   MegaHertz   Gauss  10(-4) cm-1        Axes

              Baa    -0.5681   -76.232   -27.201   -25.428  0.1996  0.0013  0.9799
     1 C(13)  Bbb    -0.5680   -76.225   -27.199   -25.426  0.9799  0.0015 -0.1996
              Bcc     1.1361   152.457    54.401    50.854 -0.0017  1.0000 -0.0010
 
              Baa    -0.0778   -41.523   -14.816   -13.851  1.0000  0.0017 -0.0000
     2 H(1)   Bbb     0.0023     1.243     0.443     0.414 -0.0017  1.0000  0.0001
              Bcc     0.0755    40.280    14.373    13.436  0.0000 -0.0001  1.0000
 
              Baa    -0.0778   -41.524   -14.817   -13.851  0.4996  0.0017  0.8662
     3 H(1)   Bbb     0.0023     1.244     0.444     0.415 -0.0007  1.0000 -0.0015
              Bcc     0.0755    40.280    14.373    13.436  0.8663 -0.0001 -0.4996
 
              Baa    -0.0778   -41.523   -14.817   -13.851 -0.5004 -0.0000  0.8658
     4 H(1)   Bbb     0.0023     1.243     0.444     0.415 -0.0026  1.0000 -0.0015
              Bcc     0.0755    40.280    14.373    13.436  0.8658  0.0030  0.5003
 

 ---------------------------------------------------------------------------------

 Calling FoFJK, ICntrl=      2127 FMM=F ISym2X=0 I1Cent= 0 IOpClX= 1 NMat=1 NMatS=1 NMatT=0.
 -------------------------------------------------------------------
 Center     Atomic                   Forces (Hartrees/Bohr)
 Number     Number              X              Y              Z
 -------------------------------------------------------------------
      1        6           0.000047423   -0.000049646    0.000032718
      2        1          -0.000039386    0.000016565    0.000044302
      3        1           0.000026238    0.000016733   -0.000058913
      4        1          -0.000034275    0.000016348   -0.000018107
 -------------------------------------------------------------------
 Cartesian Forces:  Max     0.000058913 RMS     0.000036265
 -----------------------------------------------------------------------------------------------
                       Internal Coordinate Forces (Hartree/Bohr or radian)
  Cent   Atom   N1       Length/X         N2         Alpha/Y        N3         Beta/Z          J
 -----------------------------------------------------------------------------------------------
      1  C 
      2  H        1   0.000044(     1)
      3  H        1   0.000052(     2)      2   0.000077(     4)
      4  H        1   0.000039(     3)      2  -0.000003(     5)      3   0.000029(     6)     0
 -----------------------------------------------------------------------------------------------
 Internal  Forces:  Max     0.000077275 RMS     0.000046554

 GradGradGradGradGradGradGradGradGradGradGradGradGradGradGradGradGradGrad
 Berny optimization.
 Search for a local minimum.
 Step number   1 out of a maximum of  100
 All quantities printed in internal units (Hartrees-Bohrs-Radians)
 Second derivative matrix not updated -- first step.
 The second derivative matrix:
                          R21       R22       R23       A22       A23
           R21          0.36213
           R22          0.00000   0.36213
           R23          0.00000  -0.00000   0.36213
           A22          0.00000   0.00000  -0.00000   0.32000
           A23          0.00000   0.00000  -0.00000   0.16000   0.32000
           D23          0.00000  -0.00000  -0.00000  -0.00040  -0.00040
                          D23
           D23          0.03374
 ITU=  0
     Eigenvalues ---    0.03374   0.16000   0.36213   0.36213   0.36213
     Eigenvalues ---    0.48000
 RFO step:  Lambda=-6.80418230D-08 EMin= 3.37356029D-02
 Linear search not attempted -- first point.
 Variable       Old X    -DE/DX   Delta X   Delta X   Delta X     New X
                                 (Linear)    (Quad)   (Total)
   R21        2.03750   0.00004   0.00000   0.00012   0.00012   2.03763
   R22        2.03750   0.00005   0.00000   0.00014   0.00014   2.03765
   R23        2.03750   0.00004   0.00000   0.00011   0.00011   2.03761
   A22        2.09391   0.00008   0.00000   0.00033   0.00033   2.09424
   A23        2.09476  -0.00000   0.00000  -0.00017  -0.00017   2.09458
   D23        3.13823   0.00003   0.00000   0.00086   0.00086   3.13910
         Item               Value     Threshold  Converged?
 Maximum Force            0.000077     0.000450     YES
 RMS     Force            0.000047     0.000300     YES
 Maximum Displacement     0.000863     0.001800     YES
 RMS     Displacement     0.000394     0.001200     YES
 Predicted change in Energy=-3.402091D-08
 Optimization completed.
    -- Stationary point found.
                       ----------------------------
                       !   Optimized Parameters   !
                       ! (Angstroms and Degrees)  !
 ----------------------                            ----------------------
 !      Name          Value   Derivative information (Atomic Units)     !
 ------------------------------------------------------------------------
 !       R21         1.0782   -DE/DX =    0.0                           !
 !       R22         1.0782   -DE/DX =    0.0001                        !
 !       R23         1.0782   -DE/DX =    0.0                           !
 !       A22       119.9721   -DE/DX =    0.0001                        !
 !       A23       120.0207   -DE/DX =    0.0                           !
 !       D23       179.8076   -DE/DX =    0.0                           !
 ------------------------------------------------------------------------
 GradGradGradGradGradGradGradGradGradGradGradGradGradGradGradGradGradGrad

 ---------------------------------------------------------------------------------------------------
                            Z-MATRIX (ANGSTROMS AND DEGREES)
   CD    Cent   Atom    N1       Length/X        N2       Alpha/Y        N3        Beta/Z          J
 ---------------------------------------------------------------------------------------------------
      1      1  C 
      2      2  H        1   1.078200(     1)
      3      3  H        1   1.078200(     2)      2  119.972(     4)
      4      4  H        1   1.078200(     3)      2  120.021(     5)      3  179.808(     6)      0
 ---------------------------------------------------------------------------------------------------
                         Z-Matrix orientation:                         
 ---------------------------------------------------------------------
 Center     Atomic      Atomic             Coordinates (Angstroms)
 Number     Number       Type             X           Y           Z
 ---------------------------------------------------------------------
      1          6           0        0.000000    0.000000    0.000000
      2          1           0        0.000000    0.000000    1.078200
      3          1           0        0.934011    0.000000   -0.538645
      4          1           0       -0.933548   -0.003135   -0.539437
 ---------------------------------------------------------------------
                    Distance matrix (angstroms):
                    1          2          3          4
     1  C    0.000000
     2  H    1.078200   0.000000
     3  H    1.078200   1.867235   0.000000
     4  H    1.078200   1.867692   1.867562   0.000000
 Symmetry turned off by external request.
 Stoichiometry    CH3(2)
 Framework group  C1[X(CH3)]
 Deg. of freedom     6
 Full point group                 C1      NOp   1
 Rotational constants (GHZ):    287.6527286    287.4850946    143.7846595
 1\1\GINC-NODE-5-12\FOpt\UwB97XD\Aug-CC-pVTZ\C1H3(2)\CAVALLOTTI\24-May-
 2023\1\\# uwb97xd/aug-cc-pvtz opt(internal,maxcycle=100) # int=ultrafi
 ne nosym freq guess(mix,always)\\geom 0\\0,2\C\H,1,R21\H,1,R22,2,A22\H
 ,1,R23,2,A23,3,D23,0\\R21=1.0782\R22=1.0782\R23=1.0782\A22=119.9721\A2
 3=120.0207\D23=179.8076\\Version=EM64L-G09RevD.01\HF=-39.8391758\S2=0.
 753964\S2-1=0.\S2A=0.750009\RMSD=9.939e-09\RMSF=3.626e-05\Dipole=0.000
 0394,-0.0008753,0.0000177\Quadrupole=0.4701621,-0.940015,0.4698529,0.0
 023663,0.0006535,0.0013683\PG=C01 [X(C1H3)]\\@


 AND THIS OUR LIFE, EXEMPT FROM PUBLIC HAUNT,
 FINDS TONGUES IN TREES, BOOKS IN THE RUNNING BROOKS,
 SERMONS IN STONES, AND GOOD IN EVERYTHING.
 I WOULD NOT CHANGE IT. -- W. SHAKESPEARE
 AS YOU LIKE IT, ACT II, SCENE 1.
 Job cpu time:       0 days  0 hours  1 minutes 20.8 seconds.
 File lengths (MBytes):  RWF=     66 Int=      0 D2E=      0 Chk=      6 Scr=      1
 Normal termination of Gaussian 09 at Wed May 24 13:57:12 2023.
 Link1:  Proceeding to internal job step number  2.
 ----------------------------------------------------------------------
 #N Geom=AllCheck Guess=TCheck SCRF=Check GenChk UwB97XD/Aug-CC-pVTZ Fr
 eq
 ----------------------------------------------------------------------
 1/6=100,10=4,29=7,30=1,38=1,40=1/1,3;
 2/12=2,15=1,40=1/2;
 3/5=16,6=1,7=10,11=2,14=-4,16=1,25=1,30=1,70=2,71=2,74=-58,75=-5,116=2,140=1/1,2,3;
 4/5=101/1;
 5/5=2,98=1/2;
 8/6=4,10=90,11=11/1;
 11/6=1,8=1,9=11,15=111,16=1,31=1/1,2,10;
 10/6=1,31=1/2;
 6/7=2,8=2,9=2,10=2,18=1,28=1/1;
 7/8=1,10=1,25=1,30=1/1,2,3,16;
 1/6=100,10=4,30=1/3;
 99//99;
 Structure from the checkpoint file:  "tmp.chk"
 ------
 geom 0
 ------
 Charge =  0 Multiplicity = 2
 Z-Matrix found in file.
 C
 H,1,R21
 H,1,R22,2,A22
 H,1,R23,2,A23,3,D23,0
      Variables:
 R21=1.0782
 R22=1.0782
 R23=1.0782
 A22=119.9721
 A23=120.0207
 D23=179.8076
 Recover connectivity data from disk.

 GradGradGradGradGradGradGradGradGradGradGradGradGradGradGradGradGradGrad
 Berny optimization.
 Initialization pass.
                       ----------------------------
                       !    Initial Parameters    !
                       ! (Angstroms and Degrees)  !
 ----------------------                            ----------------------
 !      Name          Value   Derivative information (Atomic Units)     !
 ------------------------------------------------------------------------
 !       R21         1.0782   calculate D2E/DX2 analytically            !
 !       R22         1.0782   calculate D2E/DX2 analytically            !
 !       R23         1.0782   calculate D2E/DX2 analytically            !
 !       A22       119.9721   calculate D2E/DX2 analytically            !
 !       A23       120.0207   calculate D2E/DX2 analytically            !
 !       D23       179.8076   calculate D2E/DX2 analytically            !
 ------------------------------------------------------------------------
 Trust Radius=3.00D-01 FncErr=1.00D-07 GrdErr=1.00D-07
 Number of steps in this run=      2 maximum allowed number of steps=      2.
 GradGradGradGradGradGradGradGradGradGradGradGradGradGradGradGradGradGrad

                          Input orientation:                          
 ---------------------------------------------------------------------
 Center     Atomic      Atomic             Coordinates (Angstroms)
 Number     Number       Type             X           Y           Z
 ---------------------------------------------------------------------
      1          6           0        0.000000    0.000000    0.000000
      2          1           0        0.000000    0.000000    1.078200
      3          1           0        0.934011    0.000000   -0.538645
      4          1           0       -0.933548   -0.003135   -0.539437
 ---------------------------------------------------------------------
                    Distance matrix (angstroms):
                    1          2          3          4
     1  C    0.000000
     2  H    1.078200   0.000000
     3  H    1.078200   1.867235   0.000000
     4  H    1.078200   1.867692   1.867562   0.000000
 Symmetry turned off by external request.
 Stoichiometry    CH3(2)
 Framework group  C1[X(CH3)]
 Deg. of freedom     6
 Full point group                 C1      NOp   1
 Rotational constants (GHZ):    287.6527286    287.4850946    143.7846595
 Standard basis: Aug-CC-pVTZ (5D, 7F)
   115 basis functions,   153 primitive gaussians,   130 cartesian basis functions
     5 alpha electrons        4 beta electrons
       nuclear repulsion energy         9.6844296245 Hartrees.
 NAtoms=    4 NActive=    4 NUniq=    4 SFac= 1.00D+00 NAtFMM=   60 NAOKFM=F Big=F
 Integral buffers will be    131072 words long.
 Raffenetti 2 integral format.
 Two-electron integral symmetry is turned off.
 Nuclear repulsion after empirical dispersion term =        9.6841720899 Hartrees.
 One-electron integrals computed using PRISM.
 NBasis=   115 RedAO= T EigKep=  1.02D-04  NBF=   115
 NBsUse=   115 1.00D-06 EigRej= -1.00D+00 NBFU=   115
 Initial guess from the checkpoint file:  "tmp.chk"
 B after Tr=     0.000000    0.000000    0.000000
         Rot=    1.000000    0.000000    0.000000    0.000000 Ang=   0.00 deg.
 Initial guess <Sx>= 0.0000 <Sy>= 0.0000 <Sz>= 0.5000 <S**2>= 0.7540 S= 0.5020
 Keep R1 and R2 ints in memory in canonical form, NReq=91047336.
 Requested convergence on RMS density matrix=1.00D-08 within 128 cycles.
 Requested convergence on MAX density matrix=1.00D-06.
 Requested convergence on             energy=1.00D-06.
 No special actions if energy rises.
 SCF Done:  E(UwB97XD) =  -39.8391758254     A.U. after    1 cycles
            NFock=  1  Conv=0.13D-08     -V/T= 2.0068
 <Sx>= 0.0000 <Sy>= 0.0000 <Sz>= 0.5000 <S**2>= 0.7540 S= 0.5020
 <L.S>=  0.00000000000    
 Annihilation of the first spin contaminant:
 S**2 before annihilation     0.7540,   after     0.7500
 DoSCS=F DFT=T ScalE2(SS,OS)=  1.000000  1.000000
 Range of M.O.s used for correlation:     1   115
 NBasis=   115 NAE=     5 NBE=     4 NFC=     0 NFV=     0
 NROrb=    115 NOA=     5 NOB=     4 NVA=   110 NVB=   111

 **** Warning!!: The largest alpha MO coefficient is  0.45536002D+02


 **** Warning!!: The largest beta MO coefficient is  0.46269629D+02

 Symmetrizing basis deriv contribution to polar:
 IMax=3 JMax=2 DiffMx= 0.00D+00
 G2DrvN: will do     5 centers at a time, making    1 passes.
 Calling FoFCou, ICntrl=  3107 FMM=F I1Cent=   0 AccDes= 0.00D+00.
 End of G2Drv F.D. properties file   721 does not exist.
 End of G2Drv F.D. properties file   722 does not exist.
 End of G2Drv F.D. properties file   788 does not exist.
          IDoAtm=1111
          Differentiating once with respect to electric field.
                with respect to dipole field.
          Differentiating once with respect to nuclear coordinates.
 Keep R1 and R2 ints in memory in canonical form, NReq=90992822.
          There are    15 degrees of freedom in the 1st order CPHF.  IDoFFX=6 NUNeed=     3.
     12 vectors produced by pass  0 Test12= 6.63D-15 6.67D-09 XBig12= 1.03D+01 1.77D+00.
 AX will form    12 AO Fock derivatives at one time.
     12 vectors produced by pass  1 Test12= 6.63D-15 6.67D-09 XBig12= 8.07D-01 4.23D-01.
     12 vectors produced by pass  2 Test12= 6.63D-15 6.67D-09 XBig12= 1.75D-02 4.58D-02.
     12 vectors produced by pass  3 Test12= 6.63D-15 6.67D-09 XBig12= 1.54D-04 3.18D-03.
     12 vectors produced by pass  4 Test12= 6.63D-15 6.67D-09 XBig12= 8.68D-07 3.70D-04.
     12 vectors produced by pass  5 Test12= 6.63D-15 6.67D-09 XBig12= 8.74D-09 2.70D-05.
     11 vectors produced by pass  6 Test12= 6.63D-15 6.67D-09 XBig12= 5.80D-11 2.68D-06.
      4 vectors produced by pass  7 Test12= 6.63D-15 6.67D-09 XBig12= 5.73D-13 3.24D-07.
      2 vectors produced by pass  8 Test12= 6.63D-15 6.67D-09 XBig12= 1.80D-15 1.15D-08.
 InvSVY:  IOpt=1 It=  1 EMax= 1.33D-15
 Solved reduced A of dimension    89 with    12 vectors.
 Isotropic polarizability for W=    0.000000       16.17 Bohr**3.
 End of Minotr F.D. properties file   721 does not exist.
 End of Minotr F.D. properties file   722 does not exist.
 End of Minotr F.D. properties file   788 does not exist.

 **********************************************************************

            Population analysis using the SCF density.

 **********************************************************************

 Alpha  occ. eigenvalues --  -10.29562  -0.78676  -0.50921  -0.50913  -0.31505
 Alpha virt. eigenvalues --    0.03022   0.04910   0.04911   0.09094   0.13055
 Alpha virt. eigenvalues --    0.13057   0.13242   0.20089   0.20090   0.21811
 Alpha virt. eigenvalues --    0.25913   0.25915   0.31999   0.32377   0.32379
 Alpha virt. eigenvalues --    0.34200   0.35543   0.37724   0.39553   0.39557
 Alpha virt. eigenvalues --    0.40317   0.40318   0.42090   0.42090   0.56863
 Alpha virt. eigenvalues --    0.56885   0.68790   0.68804   0.75388   0.75392
 Alpha virt. eigenvalues --    0.77395   0.77395   0.80511   0.83401   0.89500
 Alpha virt. eigenvalues --    0.93185   0.93624   0.93626   0.94811   0.94813
 Alpha virt. eigenvalues --    1.02407   1.02419   1.03795   1.06031   1.08567
 Alpha virt. eigenvalues --    1.08580   1.09146   1.09149   1.23460   1.35214
 Alpha virt. eigenvalues --    1.35215   1.47354   1.49126   1.49765   1.49766
 Alpha virt. eigenvalues --    1.50695   1.55624   1.55636   1.62130   1.78129
 Alpha virt. eigenvalues --    1.78139   1.93869   1.93879   1.96279   2.05014
 Alpha virt. eigenvalues --    2.05025   2.06417   2.69577   2.73995   2.73997
 Alpha virt. eigenvalues --    2.97397   2.98723   2.98729   3.29166   3.34251
 Alpha virt. eigenvalues --    3.34264   3.37026   3.37027   3.42812   3.42821
 Alpha virt. eigenvalues --    3.43050   3.47025   3.65813   3.70490   3.73405
 Alpha virt. eigenvalues --    3.73408   3.99786   3.99791   4.14369   4.14399
 Alpha virt. eigenvalues --    4.14638   4.39971   4.56669   4.56671   4.59553
 Alpha virt. eigenvalues --    4.59557   4.79077   4.79536   5.04723   5.04779
 Alpha virt. eigenvalues --    5.09711   5.09738   5.17649   5.17663   5.28074
 Alpha virt. eigenvalues --    6.05837   6.18383   6.18421   6.40450  15.90272
  Beta  occ. eigenvalues --  -10.28441  -0.74176  -0.49696  -0.49688
  Beta virt. eigenvalues --   -0.00037   0.04418   0.05671   0.05672   0.13995
  Beta virt. eigenvalues --    0.13997   0.14292   0.14324   0.20350   0.20350
  Beta virt. eigenvalues --    0.24098   0.26487   0.26489   0.33244   0.33247
  Beta virt. eigenvalues --    0.34319   0.34537   0.36501   0.38381   0.40094
  Beta virt. eigenvalues --    0.40097   0.40780   0.40780   0.42389   0.42390
  Beta virt. eigenvalues --    0.59234   0.60354   0.68884   0.68898   0.75989
  Beta virt. eigenvalues --    0.75993   0.79195   0.79196   0.80606   0.84505
  Beta virt. eigenvalues --    0.90665   0.93548   0.94234   0.94236   0.95760
  Beta virt. eigenvalues --    0.95763   1.02424   1.02435   1.03609   1.06496
  Beta virt. eigenvalues --    1.09147   1.09150   1.09826   1.09839   1.23631
  Beta virt. eigenvalues --    1.35365   1.35366   1.47449   1.50269   1.50269
  Beta virt. eigenvalues --    1.50830   1.51993   1.56202   1.56215   1.64867
  Beta virt. eigenvalues --    1.78818   1.78827   1.95029   1.95040   1.96049
  Beta virt. eigenvalues --    2.05335   2.05346   2.08618   2.75424   2.75426
  Beta virt. eigenvalues --    2.75664   2.99329   3.02129   3.02135   3.33625
  Beta virt. eigenvalues --    3.36999   3.37008   3.40248   3.40249   3.43491
  Beta virt. eigenvalues --    3.44251   3.44258   3.50200   3.68588   3.70793
  Beta virt. eigenvalues --    3.73839   3.73842   4.01342   4.01346   4.15626
  Beta virt. eigenvalues --    4.15961   4.15990   4.40839   4.57020   4.57022
  Beta virt. eigenvalues --    4.59770   4.59775   4.78591   4.81536   5.05121
  Beta virt. eigenvalues --    5.05179   5.12832   5.12858   5.18211   5.18223
  Beta virt. eigenvalues --    5.29451   6.07109   6.19009   6.19048   6.41355
  Beta virt. eigenvalues --   15.92893
          Condensed to atoms (all electrons):
               1          2          3          4
     1  C    6.006269   0.347048   0.347045   0.347043
     2  H    0.347048   0.285364   0.009233   0.009218
     3  H    0.347045   0.009233   0.285371   0.009224
     4  H    0.347043   0.009218   0.009224   0.285373
          Atomic-Atomic Spin Densities.
               1          2          3          4
     1  C    0.974246   0.016958   0.016941   0.016905
     2  H    0.016958  -0.028839   0.001787   0.001790
     3  H    0.016941   0.001787  -0.028867   0.001788
     4  H    0.016905   0.001790   0.001788  -0.028878
 Mulliken charges and spin densities:
               1          2
     1  C   -1.047405   1.025050
     2  H    0.349136  -0.008305
     3  H    0.349127  -0.008351
     4  H    0.349142  -0.008395
 Sum of Mulliken charges =  -0.00000   1.00000
 Mulliken charges and spin densities with hydrogens summed into heavy atoms:
               1          2
     1  C   -0.000000   1.000000
 APT charges:
               1
     1  C   -0.135889
     2  H    0.045545
     3  H    0.045125
     4  H    0.045219
 Sum of APT charges =  -0.00000
 APT charges with hydrogens summed into heavy atoms:
               1
     1  C   -0.000000
 Electronic spatial extent (au):  <R**2>=             29.9005
 Charge=              0.0000 electrons
 Dipole moment (field-independent basis, Debye):
    X=              0.0001    Y=             -0.0022    Z=              0.0000  Tot=              0.0022
 Quadrupole moment (field-independent basis, Debye-Ang):
   XX=             -7.1896   YY=             -9.0863   ZZ=             -7.1900
   XY=              0.0032   XZ=              0.0009   YZ=              0.0018
 Traceless Quadrupole moment (field-independent basis, Debye-Ang):
   XX=              0.6324   YY=             -1.2644   ZZ=              0.6320
   XY=              0.0032   XZ=              0.0009   YZ=              0.0018
 Octapole moment (field-independent basis, Debye-Ang**2):
  XXX=             -0.0002  YYY=              0.0057  ZZZ=              0.9196  XYY=             -0.0004
  XXY=             -0.0006  XXZ=             -0.9199  XZZ=             -0.0011  YZZ=              0.0012
  YYZ=             -0.0001  XYZ=             -0.0015
 Hexadecapole moment (field-independent basis, Debye-Ang**3):
 XXXX=            -14.8821 YYYY=            -11.9825 ZZZZ=            -14.8821 XXXY=             -0.0003
 XXXZ=             -0.0004 YYYX=             -0.0046 YYYZ=             -0.0026 ZZZX=              0.0005
 ZZZY=             -0.0016 XXYY=             -4.8994 XXZZ=             -4.9609 YYZZ=             -4.8993
 XXYZ=              0.0014 YYXZ=             -0.0002 ZZXY=             -0.0001
 N-N= 9.684172089888D+00 E-N=-1.112573262255D+02  KE= 3.956918492609D+01
  Exact polarizability:  16.055  -0.001  16.394   0.000  -0.000  16.049
 Approx polarizability:  14.636   0.001  13.748   0.001   0.001  14.636
                          Isotropic Fermi Contact Couplings
        Atom                 a.u.       MegaHertz       Gauss      10(-4) cm-1
     1  C(13)              0.01738      19.53749       6.97146       6.51700
     2  H(1)              -0.01402     -62.67665     -22.36459     -20.90668
     3  H(1)              -0.01402     -62.68915     -22.36905     -20.91085
     4  H(1)              -0.01403     -62.70078     -22.37320     -20.91473
 --------------------------------------------------------
       Center         ----  Spin Dipole Couplings  ----
                      3XX-RR        3YY-RR        3ZZ-RR
 --------------------------------------------------------
     1   Atom       -0.568037      1.136120     -0.568084
     2   Atom       -0.077823      0.002329      0.075494
     3   Atom        0.037224      0.002331     -0.039555
     4   Atom        0.037110      0.002331     -0.039441
 --------------------------------------------------------
                        XY            XZ            YZ
 --------------------------------------------------------
     1   Atom       -0.002861     -0.000007     -0.001651
     2   Atom       -0.000135      0.000001     -0.000010
     3   Atom       -0.000075     -0.066354     -0.000112
     4   Atom        0.000192      0.066419      0.000112
 --------------------------------------------------------


 ---------------------------------------------------------------------------------
              Anisotropic Spin Dipole Couplings in Principal Axis System
 ---------------------------------------------------------------------------------

       Atom             a.u.   MegaHertz   Gauss  10(-4) cm-1        Axes

              Baa    -0.5681   -76.232   -27.201   -25.428  0.2003  0.0013  0.9797
     1 C(13)  Bbb    -0.5680   -76.225   -27.199   -25.426  0.9797  0.0015 -0.2003
              Bcc     1.1361   152.457    54.401    50.854 -0.0017  1.0000 -0.0010
 
              Baa    -0.0778   -41.523   -14.816   -13.851  1.0000  0.0017 -0.0000
     2 H(1)   Bbb     0.0023     1.243     0.443     0.414 -0.0017  1.0000  0.0001
              Bcc     0.0755    40.280    14.373    13.436  0.0000 -0.0001  1.0000
 
              Baa    -0.0778   -41.524   -14.817   -13.851  0.4996  0.0017  0.8662
     3 H(1)   Bbb     0.0023     1.244     0.444     0.415 -0.0007  1.0000 -0.0015
              Bcc     0.0755    40.280    14.373    13.436  0.8663 -0.0001 -0.4996
 
              Baa    -0.0778   -41.523   -14.817   -13.851 -0.5004 -0.0000  0.8658
     4 H(1)   Bbb     0.0023     1.243     0.444     0.415 -0.0026  1.0000 -0.0015
              Bcc     0.0755    40.280    14.373    13.436  0.8658  0.0030  0.5003
 

 ---------------------------------------------------------------------------------

 Calling FoFJK, ICntrl=    100127 FMM=F ISym2X=0 I1Cent= 0 IOpClX= 1 NMat=1 NMatS=1 NMatT=0.
 Full mass-weighted force constant matrix:
 Low frequencies ---  -27.3946   -0.0010   -0.0009   -0.0006   37.7449   80.6156
 Low frequencies ---  527.1858 1409.5898 1409.9026
 Diagonal vibrational polarizability:
        0.0511579       7.7231143       0.0511703
 Harmonic frequencies (cm**-1), IR intensities (KM/Mole), Raman scattering
 activities (A**4/AMU), depolarization ratios for plane and unpolarized
 incident light, reduced masses (AMU), force constants (mDyne/A),
 and normal coordinates:
                      1                      2                      3
                      A                      A                      A
 Frequencies --    527.1571              1409.5898              1409.9026
 Red. masses --      1.2356                 1.1019                 1.1019
 Frc consts  --      0.2023                 1.2900                 1.2905
 IR Inten    --   79.75                  2.974                  2.967    
  Atom  AN      X      Y      Z        X      Y      Z        X      Y      Z
     1   6    -0.00   0.14  -0.00    -0.06  -0.00   0.07    -0.07  -0.00  -0.06
     2   1     0.00  -0.57   0.00     0.50   0.00   0.06     0.64   0.00  -0.05
     3   1     0.00  -0.57   0.00    -0.21  -0.00  -0.23     0.35   0.00   0.66
     4   1     0.00  -0.57   0.00     0.39   0.00  -0.70    -0.12   0.00   0.06
                      4                      5                      6
                      A                      A                      A
 Frequencies --   3122.7037              3303.7683              3304.1816
 Red. masses --      1.0078                 1.1185                 1.1186
 Frc consts  --      5.7902                 7.1931                 7.1951
 IR Inten    --  0.2854E-03              4.460                  4.405    
  Atom  AN      X      Y      Z        X      Y      Z        X      Y      Z
     1   6     0.00   0.00  -0.00    -0.02   0.00   0.10     0.10   0.00   0.02
     2   1    -0.00   0.00   0.58    -0.00  -0.00  -0.79     0.02   0.00  -0.18
     3   1     0.50   0.00  -0.29     0.48   0.00  -0.26    -0.51   0.00   0.31
     4   1    -0.50  -0.00  -0.29    -0.22  -0.00  -0.11    -0.67  -0.00  -0.39

 -------------------
 - Thermochemistry -
 -------------------
 Temperature   298.150 Kelvin.  Pressure   1.00000 Atm.
 Atom     1 has atomic number  6 and mass  12.00000
 Atom     2 has atomic number  1 and mass   1.00783
 Atom     3 has atomic number  1 and mass   1.00783
 Atom     4 has atomic number  1 and mass   1.00783
 Molecular mass:    15.02348 amu.
 Principal axes and moments of inertia in atomic units:
                           1         2         3
     Eigenvalues --     6.27403   6.27769  12.55170
           X            0.78805  -0.61561  -0.00168
           Y            0.00192  -0.00027   1.00000
           Z            0.61561   0.78805  -0.00097
 This molecule is an asymmetric top.
 Rotational symmetry number  1.
 Rotational temperatures (Kelvin)     13.80514    13.79709     6.90057
 Rotational constants (GHZ):         287.65273   287.48509   143.78466
 Zero-point vibrational energy      78219.6 (Joules/Mol)
                                   18.69494 (Kcal/Mol)
 Warning -- explicit consideration of   1 degrees of freedom as
           vibrations may cause significant error
 Vibrational temperatures:    758.46  2028.08  2028.53  4492.87  4753.38
          (Kelvin)           4753.97
 
 Zero-point correction=                           0.029792 (Hartree/Particle)
 Thermal correction to Energy=                    0.032844
 Thermal correction to Enthalpy=                  0.033788
 Thermal correction to Gibbs Free Energy=         0.010013
 Sum of electronic and zero-point Energies=            -39.809384
 Sum of electronic and thermal Energies=               -39.806332
 Sum of electronic and thermal Enthalpies=             -39.805388
 Sum of electronic and thermal Free Energies=          -39.829163
 
                     E (Thermal)             CV                S
                      KCal/Mol        Cal/Mol-Kelvin    Cal/Mol-Kelvin
 Total                   20.610              7.356             50.040
 Electronic               0.000              0.000              1.377
 Translational            0.889              2.981             34.068
 Rotational               0.889              2.981             13.967
 Vibrational             18.832              1.395              0.628
 Vibration     1          0.882              1.190              0.594
                       Q            Log10(Q)             Ln(Q)
 Total Bot       0.248049D-04         -4.605462        -10.604469
 Total V=0       0.125317D+10          9.098010         20.948942
 Vib (Bot)       0.215291D-13        -13.666974        -31.469370
 Vib (Bot)    1  0.304183D+00         -0.516865         -1.190127
 Vib (V=0)       0.108767D+01          0.036498          0.084041
 Vib (V=0)    1  0.108526D+01          0.035533          0.081818
 Electronic      0.200000D+01          0.301030          0.693147
 Translational   0.228882D+07          6.359611         14.643545
 Rotational      0.251693D+03          2.400871          5.528209
 -------------------------------------------------------------------
 Center     Atomic                   Forces (Hartrees/Bohr)
 Number     Number              X              Y              Z
 -------------------------------------------------------------------
      1        6           0.000047435   -0.000049628    0.000032729
      2        1          -0.000039387    0.000016561    0.000044299
      3        1           0.000026238    0.000016725   -0.000058915
      4        1          -0.000034285    0.000016343   -0.000018114
 -------------------------------------------------------------------
 Cartesian Forces:  Max     0.000058915 RMS     0.000036265
 -----------------------------------------------------------------------------------------------
                       Internal Coordinate Forces (Hartree/Bohr or radian)
  Cent   Atom   N1       Length/X         N2         Alpha/Y        N3         Beta/Z          J
 -----------------------------------------------------------------------------------------------
      1  C 
      2  H        1   0.000044(     1)
      3  H        1   0.000052(     2)      2   0.000077(     4)
      4  H        1   0.000039(     3)      2  -0.000003(     5)      3   0.000029(     6)     0
 -----------------------------------------------------------------------------------------------
 Internal  Forces:  Max     0.000077278 RMS     0.000046556

 GradGradGradGradGradGradGradGradGradGradGradGradGradGradGradGradGradGrad
 Berny optimization.
 Search for a local minimum.
 Step number   1 out of a maximum of    2
 All quantities printed in internal units (Hartrees-Bohrs-Radians)
 Second derivative matrix not updated -- analytic derivatives used.
 The second derivative matrix:
                          R21       R22       R23       A22       A23
           R21          0.37175
           R22          0.00004   0.37188
           R23          0.00003   0.00004   0.37189
           A22          0.01584   0.00009  -0.01586   0.18906
           A23          0.01582  -0.01586   0.00008   0.09452   0.18898
           D23          0.00001   0.00006   0.00005  -0.00025  -0.00026
                          D23
           D23          0.00891
 ITU=  0
     Eigenvalues ---    0.00891   0.09359   0.27573   0.37191   0.37276
     Eigenvalues ---    0.37958
 Angle between quadratic step and forces=  65.89 degrees.
 Linear search not attempted -- first point.
 Variable       Old X    -DE/DX   Delta X   Delta X   Delta X     New X
                                 (Linear)    (Quad)   (Total)
   R21        2.03750   0.00004   0.00000   0.00011   0.00011   2.03761
   R22        2.03750   0.00005   0.00000   0.00013   0.00013   2.03763
   R23        2.03750   0.00004   0.00000   0.00013   0.00013   2.03763
   A22        2.09391   0.00008   0.00000   0.00056   0.00056   2.09447
   A23        2.09476  -0.00000   0.00000  -0.00029  -0.00029   2.09447
   D23        3.13823   0.00003   0.00000   0.00326   0.00326   3.14150
         Item               Value     Threshold  Converged?
 Maximum Force            0.000077     0.000450     YES
 RMS     Force            0.000047     0.000300     YES
 Maximum Displacement     0.003263     0.001800     NO 
 RMS     Displacement     0.001360     0.001200     NO 
 Predicted change in Energy=-7.757525D-08
 GradGradGradGradGradGradGradGradGradGradGradGradGradGradGradGradGradGrad

 1\1\GINC-NODE-5-12\Freq\UwB97XD\Aug-CC-pVTZ\C1H3(2)\CAVALLOTTI\24-May-
 2023\1\\#N Geom=AllCheck Guess=TCheck SCRF=Check GenChk UwB97XD/Aug-CC
 -pVTZ Freq\\geom 0\\0,2\C\H,1,R21\H,1,R22,2,A22\H,1,R23,2,A23,3,D23,0\
 \R21=1.0782\R22=1.0782\R23=1.0782\A22=119.9721\A23=120.0207\D23=179.80
 76\\Version=EM64L-G09RevD.01\HF=-39.8391758\S2=0.753964\S2-1=0.\S2A=0.
 750009\RMSD=1.342e-09\RMSF=3.627e-05\ZeroPoint=0.0297923\Thermal=0.032
 8439\Dipole=0.0000395,-0.0008753,0.0000177\DipoleDeriv=0.0181625,0.000
 7723,-0.0000546,0.0007625,-0.4444795,0.0004606,-0.0000566,0.0004559,0.
 0186507,0.0442768,-0.0001807,-0.0000297,-0.0001774,0.148924,0.0001051,
 0.0000706,-0.0000361,-0.0565645,-0.0313289,-0.0001098,0.0432081,-0.000
 0023,0.1477592,-0.0002013,0.0429734,-0.0001335,0.0189436,-0.0311104,-0
 .0004818,-0.0431238,-0.0005828,0.1477963,-0.0003644,-0.0429873,-0.0002
 863,0.0189701\Polar=16.0546355,-0.0006251,16.3939163,0.000476,-0.00028
 62,16.04876\PG=C01 [X(C1H3)]\NImag=0\\0.61985857,0.00099992,0.02540030
 ,0.00013185,0.00058380,0.61971591,-0.05488612,-0.00007633,-0.00000165,
 0.04551719,-0.00007779,-0.00860243,0.00004418,0.00007137,0.00307874,0.
 00001295,-0.00006288,-0.35826107,-0.00002643,0.00004007,0.37175426,-0.
 28258694,-0.00009568,0.13139254,0.00467649,0.00000457,-0.00384810,0.29
 037042,0.00000039,-0.00840890,-0.00008968,0.00000021,0.00277199,0.0000
 0588,0.00007051,0.00284665,0.13141188,-0.00003626,-0.13061518,0.023603
 01,-0.00000284,-0.00675436,-0.14127091,0.00004185,0.12702402,-0.282385
 50,-0.00082791,-0.13152274,0.00469244,0.00000185,0.00386158,-0.0124599
 6,-0.00007111,-0.01374398,0.29015302,-0.00092252,-0.00838898,-0.000538
 29,0.00000474,0.00275169,0.00001693,0.00002061,0.00279026,-0.00000276,
 0.00089717,0.00284703,-0.13155669,-0.00048467,-0.13083967,-0.02357492,
 -0.00008141,-0.00673883,0.01372646,0.00004195,0.01034552,0.14140515,0.
 00052412,0.12723298\\-0.00004743,0.00004963,-0.00003273,0.00003939,-0.
 00001656,-0.00004430,-0.00002624,-0.00001672,0.00005891,0.00003429,-0.
 00001634,0.00001811\\\@


 A people that values its privileges above its principles soon loses both.
 -- Dwight D. Eisenhower
 Job cpu time:       0 days  0 hours  4 minutes  3.5 seconds.
 File lengths (MBytes):  RWF=     66 Int=      0 D2E=      0 Chk=      6 Scr=      1
 Normal termination of Gaussian 09 at Wed May 24 13:57:32 2023.
