 Entering Gaussian System, Link 0=g09
 Input=geom.com
 Output=geom.log
 Initial command:
 /software/cinetica/g09d1/g09d01/d01/build-node-6-2-59348/src/main/l1.exe "/scratch/cc/139128/Gau-160130.inp" -scrdir="/scratch/cc/139128/"
 Entering Link 1 = /software/cinetica/g09d1/g09d01/d01/build-node-6-2-59348/src/main/l1.exe PID=    160131.
  
 Copyright (c) 1988,1990,1992,1993,1995,1998,2003,2009,2013,
            Gaussian, Inc.  All Rights Reserved.
  
 This is part of the Gaussian(R) 09 program.  It is based on
 the Gaussian(R) 03 system (copyright 2003, Gaussian, Inc.),
 the Gaussian(R) 98 system (copyright 1998, Gaussian, Inc.),
 the Gaussian(R) 94 system (copyright 1995, Gaussian, Inc.),
 the Gaussian 92(TM) system (copyright 1992, Gaussian, Inc.),
 the Gaussian 90(TM) system (copyright 1990, Gaussian, Inc.),
 the Gaussian 88(TM) system (copyright 1988, Gaussian, Inc.),
 the Gaussian 86(TM) system (copyright 1986, Carnegie Mellon
 University), and the Gaussian 82(TM) system (copyright 1983,
 Carnegie Mellon University). Gaussian is a federally registered
 trademark of Gaussian, Inc.
  
 This software contains proprietary and confidential information,
 including trade secrets, belonging to Gaussian, Inc.
  
 This software is provided under written license and may be
 used, copied, transmitted, or stored only in accord with that
 written license.
  
 The following legend is applicable only to US Government
 contracts under FAR:
  
                    RESTRICTED RIGHTS LEGEND
  
 Use, reproduction and disclosure by the US Government is
 subject to restrictions as set forth in subparagraphs (a)
 and (c) of the Commercial Computer Software - Restricted
 Rights clause in FAR 52.227-19.
  
 Gaussian, Inc.
 340 Quinnipiac St., Bldg. 40, Wallingford CT 06492
  
  
 ---------------------------------------------------------------
 Warning -- This program may not be used in any manner that
 competes with the business of Gaussian, Inc. or will provide
 assistance to any competitor of Gaussian, Inc.  The licensee
 of this program is prohibited from giving any competitor of
 Gaussian, Inc. access to this program.  By using this program,
 the user acknowledges that Gaussian, Inc. is engaged in the
 business of creating and licensing software in the field of
 computational chemistry and represents and warrants to the
 licensee that it is not a competitor of Gaussian, Inc. and that
 it will not use this program in any manner prohibited above.
 ---------------------------------------------------------------
  

 Cite this work as:
 Gaussian 09, Revision D.01,
 M. J. Frisch, G. W. Trucks, H. B. Schlegel, G. E. Scuseria, 
 M. A. Robb, J. R. Cheeseman, G. Scalmani, V. Barone, B. Mennucci, 
 G. A. Petersson, H. Nakatsuji, M. Caricato, X. Li, H. P. Hratchian, 
 A. F. Izmaylov, J. Bloino, G. Zheng, J. L. Sonnenberg, M. Hada, 
 M. Ehara, K. Toyota, R. Fukuda, J. Hasegawa, M. Ishida, T. Nakajima, 
 Y. Honda, O. Kitao, H. Nakai, T. Vreven, J. A. Montgomery, Jr., 
 J. E. Peralta, F. Ogliaro, M. Bearpark, J. J. Heyd, E. Brothers, 
 K. N. Kudin, V. N. Staroverov, T. Keith, R. Kobayashi, J. Normand, 
 K. Raghavachari, A. Rendell, J. C. Burant, S. S. Iyengar, J. Tomasi, 
 M. Cossi, N. Rega, J. M. Millam, M. Klene, J. E. Knox, J. B. Cross, 
 V. Bakken, C. Adamo, J. Jaramillo, R. Gomperts, R. E. Stratmann, 
 O. Yazyev, A. J. Austin, R. Cammi, C. Pomelli, J. W. Ochterski, 
 R. L. Martin, K. Morokuma, V. G. Zakrzewski, G. A. Voth, 
 P. Salvador, J. J. Dannenberg, S. Dapprich, A. D. Daniels, 
 O. Farkas, J. B. Foresman, J. V. Ortiz, J. Cioslowski, 
 and D. J. Fox, Gaussian, Inc., Wallingford CT, 2013.
 
 ******************************************
 Gaussian 09:  EM64L-G09RevD.01 24-Apr-2013
                27-May-2023 
 ******************************************
 %mem=400MW
 %chk=tmp
 %NProcShared= 32
 Will use up to   32 processors via shared memory.
 ----------------------------------------------------------------------
 # uwb97xd/aug-cc-pvtz opt=(noeig,intern,maxcyc=50) # int=ultrafine nos
 ym freq iop(7/33=1) guess=(mix,always)
 ----------------------------------------------------------------------
 1/6=50,10=7,11=1,14=-1,18=40,26=4,38=1/1,3;
 2/12=2,15=1,17=6,18=5,29=3,40=1/2;
 3/5=16,6=1,7=10,11=2,16=1,25=1,30=1,71=1,74=-58,75=-5,116=2/1,2,3;
 4/13=-1/1;
 5/5=2,38=5/2;
 6/7=2,8=2,9=2,10=2,28=1/1;
 7/29=1,30=1,33=1/1,2,3,16;
 1/6=50,10=7,11=1,14=-1,18=40,26=4/3(2);
 2/15=1,29=3/2;
 99//99;
 2/15=1,29=3/2;
 3/5=16,6=1,7=10,11=2,16=1,25=1,30=1,71=1,74=-58,75=-5,116=2/1,2,3;
 4/13=-1/1;
 5/5=2,38=5/2;
 7/30=1,33=1/1,2,3,16;
 1/6=50,11=1,14=-1,18=40,26=4/3(-5);
 2/15=1,29=3/2;
 6/7=2,8=2,9=2,10=2,19=2,28=1/1;
 99/9=1/99;
 ------
 geom 0
 ------
 Symbolic Z-matrix:
 Charge =  0 Multiplicity = 3
 C1
 H2                   C1   R1
 H3                   C1   R2       H2   A2
 H4                   C1   R3       H2   A3       H3   D3       0
 C21                  C1   BB       H2   ANG1     H3   DH1      0
 H22                  C21  R21      C1   ANG2     H2   DH2      0
 H23                  C21  R22      H22  A22      C1   DH3      0
 H24                  C21  R23      H22  A23      H23  D23      0
       Variables:
  R1                    1.0834                   
  R2                    1.0835                   
  R3                    1.0835                   
  A2                  112.8034                   
  A3                  112.8036                   
  D3                  230.784                    
  R21                   1.0834                   
  R22                   1.0835                   
  R23                   1.0835                   
  A22                 112.8017                   
  A23                 112.8053                   
  D23                 129.2159                   
  ANG2                105.9023                   
  DH3                 115.383                    
  DH2                  60.0096                   
  DH1                 115.3954                   
  ANG1                105.8979                   
       Constants:
  BB                   10.                       
 

 GradGradGradGradGradGradGradGradGradGradGradGradGradGradGradGradGradGrad
 Berny optimization.
 Initialization pass.
                       ----------------------------
                       !    Initial Parameters    !
                       ! (Angstroms and Degrees)  !
 ----------------------                            ----------------------
 !      Name          Value   Derivative information (Atomic Units)     !
 ------------------------------------------------------------------------
 !       R1          1.0834   estimate D2E/DX2                          !
 !       R2          1.0835   estimate D2E/DX2                          !
 !       R3          1.0835   estimate D2E/DX2                          !
 !       A2        112.8034   estimate D2E/DX2                          !
 !       A3        112.8036   estimate D2E/DX2                          !
 !       D3        230.784    estimate D2E/DX2                          !
 !       R21         1.0834   estimate D2E/DX2                          !
 !       R22         1.0835   estimate D2E/DX2                          !
 !       R23         1.0835   estimate D2E/DX2                          !
 !       A22       112.8017   estimate D2E/DX2                          !
 !       A23       112.8053   estimate D2E/DX2                          !
 !       D23       129.2159   estimate D2E/DX2                          !
 !      ANG2       105.9023   estimate D2E/DX2                          !
 !       DH3       115.383    estimate D2E/DX2                          !
 !       DH2        60.0096   estimate D2E/DX2                          !
 !       DH1       115.3954   estimate D2E/DX2                          !
 !      ANG1       105.8979   estimate D2E/DX2                          !
 !       BB          10.0     Frozen                                    !
 ------------------------------------------------------------------------
 Trust Radius=3.00D-01 FncErr=1.00D-07 GrdErr=1.00D-06
 Number of steps in this run=     50 maximum allowed number of steps=    100.
 GradGradGradGradGradGradGradGradGradGradGradGradGradGradGradGradGradGrad

 ---------------------------------------------------------------------------------------------------
                            Z-MATRIX (ANGSTROMS AND DEGREES)
   CD    Cent   Atom    N1       Length/X        N2       Alpha/Y        N3        Beta/Z          J
 ---------------------------------------------------------------------------------------------------
      1      1  C 
      2      2  H        1   1.083400(     1)
      3      3  H        1   1.083500(     2)      2  112.803(     8)
      4      4  H        1   1.083500(     3)      2  112.804(     9)      3  230.784(    14)      0
      5      5  C        1  10.000000(     4)      2  105.898(    10)      3  115.395(    15)      0
      6      6  H        5   1.083400(     5)      1  105.902(    11)      2   60.010(    16)      0
      7      7  H        5   1.083500(     6)      6  112.802(    12)      1  115.383(    17)      0
      8      8  H        5   1.083500(     7)      6  112.805(    13)      7  129.216(    18)      0
 ---------------------------------------------------------------------------------------------------
                         Z-Matrix orientation:                         
 ---------------------------------------------------------------------
 Center     Atomic      Atomic             Coordinates (Angstroms)
 Number     Number       Type             X           Y           Z
 ---------------------------------------------------------------------
      1          6           0        0.000000    0.000000    0.000000
      2          1           0        0.000000    0.000000    1.083400
      3          1           0        0.998814    0.000000   -0.419932
      4          1           0       -0.631495    0.773848   -0.419936
      5          6           0       -4.124592   -8.688171   -2.739240
      6          1           0       -5.123444   -8.687937   -2.319656
      7          1           0       -3.492954   -9.461938   -2.319371
      8          1           0       -4.124219   -8.688549   -3.822740
 ---------------------------------------------------------------------
                    Distance matrix (angstroms):
                    1          2          3          4          5
     1  C    0.000000
     2  H    1.083400   0.000000
     3  H    1.083500   1.804893   0.000000
     4  H    1.083500   1.804895   1.804646   0.000000
     5  C   10.000000  10.349355  10.349530  10.349429   0.000000
     6  H   10.349432  10.644751  10.796817  10.644807   1.083400
     7  H   10.349323  10.644616  10.644817  10.796625   1.083500
     8  H   10.349561  10.796772  10.644973  10.644959   1.083500
                    6          7          8
     6  H    0.000000
     7  H    1.804875   0.000000
     8  H    1.804912   1.804645   0.000000
 Symmetry turned off by external request.
 This structure is nearly, but not quite of a higher symmetry.
 Consider Symm=Loose if the higher symmetry is desired.
 Stoichiometry    C2H6(3)
 Framework group  C1[X(C2H6)]
 Deg. of freedom    18
 Full point group                 C1      NOp   1
 Rotational constants (GHZ):     76.9730380      0.6538404      0.6538398
 Standard basis: Aug-CC-pVTZ (5D, 7F)
   230 basis functions,   306 primitive gaussians,   260 cartesian basis functions
    10 alpha electrons        8 beta electrons
       nuclear repulsion energy        23.5330891544 Hartrees.
 NAtoms=    8 NActive=    8 NUniq=    8 SFac= 1.00D+00 NAtFMM=   60 NAOKFM=F Big=F
 Integral buffers will be    131072 words long.
 Raffenetti 2 integral format.
 Two-electron integral symmetry is turned off.
 Nuclear repulsion after empirical dispersion term =       23.5326566256 Hartrees.
 One-electron integrals computed using PRISM.
 NBasis=   230 RedAO= T EigKep=  1.24D-04  NBF=   230
 NBsUse=   230 1.00D-06 EigRej= -1.00D+00 NBFU=   230
 ExpMin= 2.53D-02 ExpMax= 8.24D+03 ExpMxC= 2.81D+02 IAcc=3 IRadAn=         5 AccDes= 0.00D+00
 Harris functional with IExCor= 4639 and IRadAn=       5 diagonalized for initial guess.
 HarFok:  IExCor= 4639 AccDes= 0.00D+00 IRadAn=         5 IDoV= 1 UseB2=F ITyADJ=14
 ICtDFT=  3500011 ScaDFX=  1.000000  1.000000  1.000000  1.000000
 FoFCou: FMM=F IPFlag=           0 FMFlag=      100000 FMFlg1=           0
         NFxFlg=           0 DoJE=T BraDBF=F KetDBF=T FulRan=T
         wScrn=  0.000000 ICntrl=     500 IOpCl=  0 I1Cent=   200000004 NGrid=           0
         NMat0=    1 NMatS0=      1 NMatT0=    0 NMatD0=    1 NMtDS0=    0 NMtDT0=    0
 Symmetry not used in FoFCou.
 Mixing orbitals, IMix= 1 IMixAn=  0 NRI=1 NE=   10 Coef=  7.07106781D-01  7.07106781D-01
 Mixing orbitals, IMix= 1 IMixAn=  0 NRI=1 NE=    8 Coef= -7.07106781D-01  7.07106781D-01
 Initial guess <Sx>= 0.0000 <Sy>= 0.0000 <Sz>= 1.0000 <S**2>= 2.0000 S= 1.0000
 Requested convergence on RMS density matrix=1.00D-08 within 128 cycles.
 Requested convergence on MAX density matrix=1.00D-06.
 Requested convergence on             energy=1.00D-06.
 No special actions if energy rises.
 SCF Done:  E(UwB97XD) =  -79.6653891145     A.U. after   13 cycles
            NFock= 13  Conv=0.30D-08     -V/T= 2.0066
 <Sx>= 0.0000 <Sy>= 0.0000 <Sz>= 1.0000 <S**2>= 2.0065 S= 1.0022
 <L.S>=  0.00000000000    
 Annihilation of the first spin contaminant:
 S**2 before annihilation     2.0065,   after     2.0000

 **********************************************************************

            Population analysis using the SCF density.

 **********************************************************************

 Alpha  occ. eigenvalues --  -10.29966 -10.29966  -0.78992  -0.78992  -0.49872
 Alpha  occ. eigenvalues --   -0.49872  -0.49864  -0.49864  -0.33660  -0.33659
 Alpha virt. eigenvalues --    0.02859   0.03327   0.04992   0.04992   0.05187
 Alpha virt. eigenvalues --    0.05187   0.08056   0.09684   0.12782   0.12783
 Alpha virt. eigenvalues --    0.12894   0.12895   0.13246   0.13617   0.20393
 Alpha virt. eigenvalues --    0.20394   0.20488   0.20490   0.23290   0.23370
 Alpha virt. eigenvalues --    0.23934   0.23935   0.23948   0.23949   0.29926
 Alpha virt. eigenvalues --    0.32355   0.32365   0.32365   0.32419   0.32420
 Alpha virt. eigenvalues --    0.34980   0.34980   0.36114   0.36139   0.37479
 Alpha virt. eigenvalues --    0.37479   0.37480   0.37480   0.38154   0.38259
 Alpha virt. eigenvalues --    0.40052   0.40053   0.40123   0.40124   0.46668
 Alpha virt. eigenvalues --    0.46669   0.46692   0.46693   0.56826   0.57011
 Alpha virt. eigenvalues --    0.59379   0.59382   0.59389   0.59392   0.62898
 Alpha virt. eigenvalues --    0.62928   0.75496   0.75498   0.75513   0.75516
 Alpha virt. eigenvalues --    0.79853   0.79854   0.79873   0.79874   0.82923
 Alpha virt. eigenvalues --    0.82923   0.85757   0.86273   0.86534   0.87173
 Alpha virt. eigenvalues --    0.91188   0.91188   0.91191   0.91191   0.93547
 Alpha virt. eigenvalues --    0.93835   0.94361   0.94363   0.94475   0.94476
 Alpha virt. eigenvalues --    1.03599   1.03599   1.04286   1.04286   1.04291
 Alpha virt. eigenvalues --    1.04291   1.05865   1.05979   1.06724   1.06727
 Alpha virt. eigenvalues --    1.06745   1.06749   1.12442   1.12443   1.12451
 Alpha virt. eigenvalues --    1.12452   1.24535   1.24574   1.36873   1.36874
 Alpha virt. eigenvalues --    1.36879   1.36879   1.41277   1.41713   1.43913
 Alpha virt. eigenvalues --    1.43915   1.43918   1.43919   1.50947   1.50948
 Alpha virt. eigenvalues --    1.50976   1.50977   1.52415   1.52415   1.58256
 Alpha virt. eigenvalues --    1.58477   1.71951   1.71955   1.71965   1.71969
 Alpha virt. eigenvalues --    1.79179   1.79217   1.85247   1.85247   1.88166
 Alpha virt. eigenvalues --    1.88172   1.88200   1.88206   2.02845   2.02848
 Alpha virt. eigenvalues --    2.02898   2.02901   2.04652   2.04674   2.69657
 Alpha virt. eigenvalues --    2.69865   2.79393   2.79394   2.79406   2.79407
 Alpha virt. eigenvalues --    2.81622   2.82191   3.13192   3.13192   3.13195
 Alpha virt. eigenvalues --    3.13195   3.25357   3.25377   3.31726   3.31726
 Alpha virt. eigenvalues --    3.31729   3.31729   3.34588   3.34588   3.38583
 Alpha virt. eigenvalues --    3.38584   3.38586   3.38587   3.44914   3.44945
 Alpha virt. eigenvalues --    3.53886   3.53888   3.53898   3.53900   3.72912
 Alpha virt. eigenvalues --    3.72915   3.72941   3.72945   3.73432   3.73438
 Alpha virt. eigenvalues --    3.80113   3.80113   3.88858   3.88862   3.88870
 Alpha virt. eigenvalues --    3.88873   4.16893   4.17077   4.17736   4.17738
 Alpha virt. eigenvalues --    4.17744   4.17746   4.42401   4.42411   4.47451
 Alpha virt. eigenvalues --    4.47453   4.47460   4.47462   4.61923   4.61925
 Alpha virt. eigenvalues --    4.61936   4.61938   4.64714   4.64714   4.84928
 Alpha virt. eigenvalues --    4.84965   4.92196   4.92197   4.92226   4.92226
 Alpha virt. eigenvalues --    5.12168   5.12224   5.13268   5.13272   5.13291
 Alpha virt. eigenvalues --    5.13295   5.54927   5.54928   5.62586   5.62631
 Alpha virt. eigenvalues --    5.68454   5.68458   5.68496   5.68500   6.21837
 Alpha virt. eigenvalues --    6.21849   6.21879   6.21891  15.79098  15.79121
  Beta  occ. eigenvalues --  -10.28781 -10.28781  -0.74910  -0.74910  -0.48516
  Beta  occ. eigenvalues --   -0.48515  -0.48507  -0.48507
  Beta virt. eigenvalues --   -0.01424  -0.01410   0.04059   0.04367   0.05592
  Beta virt. eigenvalues --    0.05592   0.05762   0.05762   0.12186   0.13820
  Beta virt. eigenvalues --    0.13820   0.13898   0.13899   0.14308   0.14434
  Beta virt. eigenvalues --    0.14538   0.20888   0.20889   0.20968   0.20969
  Beta virt. eigenvalues --    0.24367   0.24369   0.24389   0.24390   0.25062
  Beta virt. eigenvalues --    0.25076   0.32232   0.32956   0.32957   0.33013
  Beta virt. eigenvalues --    0.33014   0.34568   0.35025   0.35025   0.37459
  Beta virt. eigenvalues --    0.37540   0.38262   0.38262   0.38266   0.38266
  Beta virt. eigenvalues --    0.38841   0.38890   0.40695   0.40696   0.40763
  Beta virt. eigenvalues --    0.40764   0.47534   0.47534   0.47560   0.47560
  Beta virt. eigenvalues --    0.59486   0.59489   0.59495   0.59498   0.59765
  Beta virt. eigenvalues --    0.59848   0.64951   0.64953   0.76202   0.76204
  Beta virt. eigenvalues --    0.76213   0.76216   0.81064   0.81064   0.81080
  Beta virt. eigenvalues --    0.81081   0.82955   0.82955   0.86222   0.87286
  Beta virt. eigenvalues --    0.88502   0.88620   0.91985   0.91986   0.91991
  Beta virt. eigenvalues --    0.91992   0.94265   0.94596   0.94944   0.94945
  Beta virt. eigenvalues --    0.95057   0.95058   1.03368   1.03368   1.04346
  Beta virt. eigenvalues --    1.04347   1.04350   1.04351   1.06553   1.06642
  Beta virt. eigenvalues --    1.07042   1.07045   1.07061   1.07065   1.13275
  Beta virt. eigenvalues --    1.13278   1.13284   1.13287   1.24584   1.24627
  Beta virt. eigenvalues --    1.37153   1.37153   1.37158   1.37159   1.44160
  Beta virt. eigenvalues --    1.44301   1.44302   1.44306   1.44307   1.44634
  Beta virt. eigenvalues --    1.51782   1.51783   1.51809   1.51811   1.52559
  Beta virt. eigenvalues --    1.52559   1.58529   1.58745   1.72917   1.72921
  Beta virt. eigenvalues --    1.72931   1.72935   1.80913   1.80958   1.85200
  Beta virt. eigenvalues --    1.85200   1.88934   1.88939   1.88970   1.88976
  Beta virt. eigenvalues --    2.03744   2.03747   2.03795   2.03798   2.06492
  Beta virt. eigenvalues --    2.06509   2.72230   2.72391   2.80777   2.80778
  Beta virt. eigenvalues --    2.80790   2.80791   2.87605   2.88214   3.15473
  Beta virt. eigenvalues --    3.15473   3.15475   3.15475   3.29132   3.29142
  Beta virt. eigenvalues --    3.34379   3.34381   3.34381   3.34382   3.35226
  Beta virt. eigenvalues --    3.35226   3.42657   3.42658   3.42660   3.42661
  Beta virt. eigenvalues --    3.48801   3.48836   3.56122   3.56125   3.56133
  Beta virt. eigenvalues --    3.56135   3.73774   3.73778   3.73803   3.73807
  Beta virt. eigenvalues --    3.75125   3.75134   3.80598   3.80598   3.90015
  Beta virt. eigenvalues --    3.90017   3.90026   3.90029   4.18159   4.18341
  Beta virt. eigenvalues --    4.19452   4.19454   4.19460   4.19462   4.43224
  Beta virt. eigenvalues --    4.43233   4.47886   4.47888   4.47894   4.47897
  Beta virt. eigenvalues --    4.62345   4.62348   4.62358   4.62360   4.64685
  Beta virt. eigenvalues --    4.64685   4.86347   4.86382   4.92987   4.92987
  Beta virt. eigenvalues --    4.93016   4.93016   5.13274   5.13334   5.15306
  Beta virt. eigenvalues --    5.15310   5.15330   5.15334   5.56266   5.56266
  Beta virt. eigenvalues --    5.64534   5.64577   5.69164   5.69168   5.69206
  Beta virt. eigenvalues --    5.69210   6.23008   6.23020   6.23050   6.23062
  Beta virt. eigenvalues --   15.81600  15.81622
          Condensed to atoms (all electrons):
               1          2          3          4          5          6
     1  C    5.850477   0.352334   0.352339   0.352354  -0.000001  -0.000000
     2  H    0.352334   0.327522   0.008807   0.008804  -0.000000   0.000000
     3  H    0.352339   0.008807   0.327542   0.008808  -0.000000  -0.000000
     4  H    0.352354   0.008804   0.008808   0.327567  -0.000000   0.000000
     5  C   -0.000001  -0.000000  -0.000000  -0.000000   5.850477   0.352313
     6  H   -0.000000   0.000000  -0.000000   0.000000   0.352313   0.327499
     7  H   -0.000000   0.000000   0.000000  -0.000000   0.352357   0.008806
     8  H   -0.000000  -0.000000   0.000000   0.000000   0.352357   0.008807
               7          8
     1  C   -0.000000  -0.000000
     2  H    0.000000  -0.000000
     3  H    0.000000   0.000000
     4  H   -0.000000   0.000000
     5  C    0.352357   0.352357
     6  H    0.008806   0.008807
     7  H    0.327569   0.008807
     8  H    0.008807   0.327564
          Atomic-Atomic Spin Densities.
               1          2          3          4          5          6
     1  C    0.996776   0.005421   0.005435   0.005399  -0.000001  -0.000000
     2  H    0.005421  -0.023171   0.006708   0.006713  -0.000000   0.000000
     3  H    0.005435   0.006708  -0.023166   0.006712  -0.000000   0.000000
     4  H    0.005399   0.006713   0.006712  -0.023215  -0.000000   0.000000
     5  C   -0.000001  -0.000000  -0.000000  -0.000000   0.996777   0.005447
     6  H   -0.000000   0.000000   0.000000   0.000000   0.005447  -0.023140
     7  H   -0.000000   0.000000   0.000000   0.000000   0.005400   0.006711
     8  H   -0.000000   0.000000   0.000000   0.000000   0.005409   0.006708
               7          8
     1  C   -0.000000  -0.000000
     2  H    0.000000   0.000000
     3  H    0.000000   0.000000
     4  H    0.000000   0.000000
     5  C    0.005400   0.005409
     6  H    0.006711   0.006708
     7  H   -0.023216   0.006715
     8  H    0.006715  -0.023197
 Mulliken charges and spin densities:
               1          2
     1  C   -0.907502   1.013030
     2  H    0.302533  -0.004329
     3  H    0.302504  -0.004311
     4  H    0.302466  -0.004391
     5  C   -0.907502   1.013030
     6  H    0.302574  -0.004275
     7  H    0.302462  -0.004391
     8  H    0.302466  -0.004365
 Sum of Mulliken charges =  -0.00000   2.00000
 Mulliken charges and spin densities with hydrogens summed into heavy atoms:
               1          2
     1  C    0.000000   1.000000
     5  C   -0.000000   1.000000
 Electronic spatial extent (au):  <R**2>=           3329.6187
 Charge=             -0.0000 electrons
 Dipole moment (field-independent basis, Debye):
    X=              0.0001    Y=             -0.0000    Z=              0.0000  Tot=              0.0001
 Quadrupole moment (field-independent basis, Debye-Ang):
   XX=            -13.4301   YY=             -8.5309   ZZ=            -14.2257
   XY=              3.0014   XZ=              0.9454   YZ=              1.9933
 Traceless Quadrupole moment (field-independent basis, Debye-Ang):
   XX=             -1.3678   YY=              3.5313   ZZ=             -2.1635
   XY=              3.0014   XZ=              0.9454   YZ=              1.9933
 Octapole moment (field-independent basis, Debye-Ang**2):
  XXX=             83.0836  YYY=            111.1793  ZZZ=             58.4558  XYY=             -8.4803
  XXY=             45.9600  XXZ=             14.4955  XZZ=             26.7504  YZZ=             56.3381
  YYZ=             -5.6399  XYZ=            -12.3280
 Hexadecapole moment (field-independent basis, Debye-Ang**3):
 XXXX=           -746.8464 YYYY=          -2612.0738 ZZZZ=           -349.9419 XXXY=           -713.5437
 XXXZ=           -233.1101 YYYX=           -429.5816 YYYZ=           -285.2005 ZZZX=           -238.6105
 ZZZY=           -502.5753 XXYY=           -521.0473 XXZZ=           -179.2592 YYZZ=           -553.7402
 XXYZ=           -123.8021 YYXZ=             38.8715 ZZXY=           -229.5657
 N-N= 2.353265662562D+01 E-N=-2.308338127918D+02  KE= 7.914395190089D+01
                          Isotropic Fermi Contact Couplings
        Atom                 a.u.       MegaHertz       Gauss      10(-4) cm-1
     1  C(13)              0.17632      99.10677      35.36376      33.05846
     2  H(1)              -0.00716     -16.00753      -5.71188      -5.33954
     3  H(1)              -0.00716     -16.00700      -5.71170      -5.33936
     4  H(1)              -0.00717     -16.01968      -5.71622      -5.34359
     5  C(13)              0.17632      99.10710      35.36388      33.05857
     6  H(1)              -0.00716     -15.99677      -5.70805      -5.33595
     7  H(1)              -0.00717     -16.02015      -5.71639      -5.34375
     8  H(1)              -0.00717     -16.01719      -5.71533      -5.34276
 --------------------------------------------------------
       Center         ----  Spin Dipole Couplings  ----
                      3XX-RR        3YY-RR        3ZZ-RR
 --------------------------------------------------------
     1   Atom       -0.257674      0.665315     -0.407640
     2   Atom       -0.058246     -0.016201      0.074446
     3   Atom        0.054943     -0.016204     -0.038739
     4   Atom        0.001311      0.037431     -0.038743
     5   Atom       -0.257670      0.665457     -0.407787
     6   Atom        0.054977     -0.016189     -0.038788
     7   Atom        0.001335      0.037423     -0.038759
     8   Atom       -0.058233     -0.016206      0.074439
 --------------------------------------------------------
                        XY            XZ            YZ
 --------------------------------------------------------
     1   Atom        0.565546      0.178354      0.375718
     2   Atom        0.025762      0.000605      0.001274
     3   Atom        0.011147     -0.046983      0.023250
     4   Atom       -0.032615      0.047713     -0.021696
     5   Atom        0.565609      0.178246      0.375470
     6   Atom        0.011116     -0.046962      0.023259
     7   Atom       -0.032619      0.047709     -0.021691
     8   Atom        0.025759      0.000553      0.001319
 --------------------------------------------------------


 ---------------------------------------------------------------------------------
              Anisotropic Spin Dipole Couplings in Principal Axis System
 ---------------------------------------------------------------------------------

       Atom             a.u.   MegaHertz   Gauss  10(-4) cm-1        Axes

              Baa    -0.5261   -70.602   -25.193   -23.550  0.7174 -0.1243 -0.6855
     1 C(13)  Bbb    -0.5261   -70.600   -25.192   -23.550  0.5615 -0.4793  0.6746
              Bcc     1.0522   141.202    50.384    47.100  0.4124  0.8688  0.2740
 
              Baa    -0.0705   -37.602   -13.417   -12.543  0.9034 -0.4288 -0.0000
     2 H(1)   Bbb    -0.0040    -2.133    -0.761    -0.711  0.4287  0.9032 -0.0180
              Bcc     0.0745    39.735    14.178    13.254  0.0077  0.0162  0.9998
 
              Baa    -0.0705   -37.595   -13.415   -12.540  0.3501 -0.4288  0.8328
     3 H(1)   Bbb    -0.0040    -2.137    -0.763    -0.713  0.1497  0.9033  0.4021
              Bcc     0.0745    39.732    14.177    13.253  0.9247  0.0161 -0.3804
 
              Baa    -0.0705   -37.595   -13.415   -12.540 -0.5536  0.0001  0.8328
     4 H(1)   Bbb    -0.0040    -2.136    -0.762    -0.713  0.6052  0.6870  0.4022
              Bcc     0.0745    39.731    14.177    13.253 -0.5721  0.7267 -0.3804
 
              Baa    -0.5262   -70.605   -25.194   -23.551  0.8731 -0.2912 -0.3910
     5 C(13)  Bbb    -0.5261   -70.597   -25.191   -23.549  0.2600 -0.4003  0.8787
              Bcc     1.0522   141.202    50.384    47.100  0.4124  0.8689  0.2738
 
              Baa    -0.0705   -37.602   -13.417   -12.543  0.3498 -0.4286  0.8330
     6 H(1)   Bbb    -0.0040    -2.134    -0.762    -0.712  0.1497  0.9034  0.4019
              Bcc     0.0745    39.736    14.179    13.254  0.9248  0.0159 -0.3802
 
              Baa    -0.0705   -37.595   -13.415   -12.540 -0.5534  0.0001  0.8329
     7 H(1)   Bbb    -0.0040    -2.136    -0.762    -0.713  0.6052  0.6871  0.4020
              Bcc     0.0745    39.731    14.177    13.253 -0.5722  0.7266 -0.3803
 
              Baa    -0.0705   -37.595   -13.415   -12.540  0.9034 -0.4289  0.0005
     8 H(1)   Bbb    -0.0040    -2.136    -0.762    -0.712  0.4288  0.9032 -0.0182
              Bcc     0.0745    39.731    14.177    13.253  0.0074  0.0166  0.9998
 

 ---------------------------------------------------------------------------------

 DipInt: DoE/N= T T RetVal/Mat= T F Init=T NMatP=  1 IDeriv=0 Min/MaxMlt=  1  1
 Entering OneElI...
 Multipole integrals L=1 to 1 MinM= 0 MaxM= 0.
 Requested accuracy = 0.1000D-12
 PrsmSu:  NPrtUS=   1 ThrOK=F IAlg=1 NPAlg=1 LenDen=           0.
 Prism:   IPart=     0 DynPar=F LinDyn=F Incr=          25.
 PRISM was handed   419188165 working-precision words and  2522 shell-pairs
 IPart=  0 NShTot=        2522 NBatch=          36 AvBLen=        70.1
 PrSmSu:  NxtVal=             26.
 Entering OneElI...
 Calculate overlap and kinetic energy integrals
    NBasis = 260  MinDer = 1  MaxDer = 1
 Requested accuracy = 0.1000D-12
 PrsmSu:  NPrtUS=  32 ThrOK=T IAlg=1 NPAlg=1 LenDen=           0.
 Prism:   IPart=     0 DynPar=F LinDyn=F Incr=           1.
 PRISM was handed    13055934 working-precision words and  2698 shell-pairs
 PRISM was handed    13055934 working-precision words and  2698 shell-pairs
 PRISM was handed    13055934 working-precision words and  2698 shell-pairs
 PRISM was handed    13055934 working-precision words and  2698 shell-pairs
 PRISM was handed    13055934 working-precision words and  2698 shell-pairs
 PRISM was handed    13055934 working-precision words and  2698 shell-pairs
 PRISM was handed    13055934 working-precision words and  2698 shell-pairs
 PRISM was handed    13055934 working-precision words and  2698 shell-pairs
 PRISM was handed    13055934 working-precision words and  2698 shell-pairs
 PRISM was handed    13055934 working-precision words and  2698 shell-pairs
 PRISM was handed    13055934 working-precision words and  2698 shell-pairs
 PRISM was handed    13055934 working-precision words and  2698 shell-pairs
 PRISM was handed    13055934 working-precision words and  2698 shell-pairs
 PRISM was handed    13055934 working-precision words and  2698 shell-pairs
 PRISM was handed    13055934 working-precision words and  2698 shell-pairs
 PRISM was handed    13055934 working-precision words and  2698 shell-pairs
 PRISM was handed    13055934 working-precision words and  2698 shell-pairs
 PRISM was handed    13055934 working-precision words and  2698 shell-pairs
 PRISM was handed    13055934 working-precision words and  2698 shell-pairs
 PRISM was handed    13055934 working-precision words and  2698 shell-pairs
 PRISM was handed    13055934 working-precision words and  2698 shell-pairs
 PRISM was handed    13055934 working-precision words and  2698 shell-pairs
 PRISM was handed    13055934 working-precision words and  2698 shell-pairs
 PRISM was handed    13055934 working-precision words and  2698 shell-pairs
 PRISM was handed    13055934 working-precision words and  2698 shell-pairs
 PRISM was handed    13055934 working-precision words and  2698 shell-pairs
 PRISM was handed    13055934 working-precision words and  2698 shell-pairs
 PRISM was handed    13055934 working-precision words and  2698 shell-pairs
 PRISM was handed    13055934 working-precision words and  2698 shell-pairs
 PRISM was handed    13055934 working-precision words and  2698 shell-pairs
 PRISM was handed    13055934 working-precision words and  2698 shell-pairs
 PRISM was handed    13055934 working-precision words and  2698 shell-pairs
 IPart=  0 NShTot=         108 NBatch=          36 AvBLen=         3.0
 IPart= 18 NShTot=          81 NBatch=          20 AvBLen=         4.0
 IPart= 15 NShTot=          84 NBatch=          20 AvBLen=         4.2
 IPart=  8 NShTot=          86 NBatch=          21 AvBLen=         4.1
 IPart= 11 NShTot=          86 NBatch=          21 AvBLen=         4.1
 IPart=  2 NShTot=          99 NBatch=          30 AvBLen=         3.3
 IPart= 19 NShTot=          81 NBatch=          20 AvBLen=         4.0
 IPart= 16 NShTot=          81 NBatch=          20 AvBLen=         4.0
 IPart=  1 NShTot=         108 NBatch=          36 AvBLen=         3.0
 IPart= 26 NShTot=          76 NBatch=          17 AvBLen=         4.5
 IPart=  3 NShTot=          99 NBatch=          30 AvBLen=         3.3
 IPart= 20 NShTot=          78 NBatch=          17 AvBLen=         4.6
 IPart=  7 NShTot=          89 NBatch=          21 AvBLen=         4.2
 IPart= 14 NShTot=          84 NBatch=          20 AvBLen=         4.2
 IPart= 27 NShTot=          75 NBatch=          17 AvBLen=         4.4
 IPart= 30 NShTot=          73 NBatch=          17 AvBLen=         4.3
 IPart= 31 NShTot=          73 NBatch=          17 AvBLen=         4.3
 IPart= 23 NShTot=          78 NBatch=          17 AvBLen=         4.6
 IPart= 17 NShTot=          81 NBatch=          20 AvBLen=         4.0
 IPart= 22 NShTot=          78 NBatch=          17 AvBLen=         4.6
 IPart= 28 NShTot=          73 NBatch=          17 AvBLen=         4.3
 IPart= 24 NShTot=          77 NBatch=          17 AvBLen=         4.5
 IPart= 12 NShTot=          85 NBatch=          20 AvBLen=         4.3
 IPart=  5 NShTot=          95 NBatch=          27 AvBLen=         3.5
 IPart=  4 NShTot=          95 NBatch=          27 AvBLen=         3.5
 IPart= 10 NShTot=          86 NBatch=          21 AvBLen=         4.1
 IPart=  9 NShTot=          86 NBatch=          21 AvBLen=         4.1
 IPart= 13 NShTot=          85 NBatch=          20 AvBLen=         4.3
 IPart= 29 NShTot=          73 NBatch=          17 AvBLen=         4.3
 IPart= 21 NShTot=          78 NBatch=          17 AvBLen=         4.6
 IPart=  6 NShTot=          90 NBatch=          22 AvBLen=         4.1
 IPart= 25 NShTot=          77 NBatch=          17 AvBLen=         4.5
 PrSmSu:  NxtVal=             33.
 Entering OneElI...
 Calculate potential energy integrals
    NBasis = 260  MinDer = 1  MaxDer = 1
 Requested accuracy = 0.1000D-12
 PrsmSu:  NPrtUS=  32 ThrOK=T IAlg=1 NPAlg=1 LenDen=           0.
 Prism:   IPart=     0 DynPar=F LinDyn=F Incr=           5.
 PRISM was handed    13065470 working-precision words and  2196 shell-pairs
 PRISM was handed    13065470 working-precision words and  2196 shell-pairs
 PRISM was handed    13065470 working-precision words and  2196 shell-pairs
 PRISM was handed    13065470 working-precision words and  2196 shell-pairs
 PRISM was handed    13065470 working-precision words and  2196 shell-pairs
 PRISM was handed    13065470 working-precision words and  2196 shell-pairs
 PRISM was handed    13065470 working-precision words and  2196 shell-pairs
 PRISM was handed    13065470 working-precision words and  2196 shell-pairs
 PRISM was handed    13065470 working-precision words and  2196 shell-pairs
 PRISM was handed    13065470 working-precision words and  2196 shell-pairs
 PRISM was handed    13065470 working-precision words and  2196 shell-pairs
 PRISM was handed    13065470 working-precision words and  2196 shell-pairs
 PRISM was handed    13065470 working-precision words and  2196 shell-pairs
 PRISM was handed    13065470 working-precision words and  2196 shell-pairs
 PRISM was handed    13065470 working-precision words and  2196 shell-pairs
 PRISM was handed    13065470 working-precision words and  2196 shell-pairs
 PRISM was handed    13065470 working-precision words and  2196 shell-pairs
 PRISM was handed    13065470 working-precision words and  2196 shell-pairs
 PRISM was handed    13065470 working-precision words and  2196 shell-pairs
 PRISM was handed    13065470 working-precision words and  2196 shell-pairs
 PRISM was handed    13065470 working-precision words and  2196 shell-pairs
 PRISM was handed    13065470 working-precision words and  2196 shell-pairs
 PRISM was handed    13065470 working-precision words and  2196 shell-pairs
 PRISM was handed    13065470 working-precision words and  2196 shell-pairs
 PRISM was handed    13065470 working-precision words and  2196 shell-pairs
 PRISM was handed    13065470 working-precision words and  2196 shell-pairs
 PRISM was handed    13065470 working-precision words and  2196 shell-pairs
 PRISM was handed    13065470 working-precision words and  2196 shell-pairs
 PRISM was handed    13065470 working-precision words and  2196 shell-pairs
 PRISM was handed    13065470 working-precision words and  2196 shell-pairs
 PRISM was handed    13065470 working-precision words and  2196 shell-pairs
 PRISM was handed    13065470 working-precision words and  2196 shell-pairs
 IPart=  7 NShTot=         584 NBatch=          73 AvBLen=         8.0
 IPart= 30 NShTot=         448 NBatch=          56 AvBLen=         8.0
 IPart= 23 NShTot=         496 NBatch=          62 AvBLen=         8.0
 IPart= 31 NShTot=         448 NBatch=          56 AvBLen=         8.0
 IPart= 27 NShTot=         472 NBatch=          59 AvBLen=         8.0
 IPart= 11 NShTot=         568 NBatch=          71 AvBLen=         8.0
 IPart= 19 NShTot=         520 NBatch=          65 AvBLen=         8.0
 IPart= 15 NShTot=         552 NBatch=          69 AvBLen=         8.0
 IPart=  5 NShTot=         632 NBatch=          79 AvBLen=         8.0
 IPart=  3 NShTot=         656 NBatch=          82 AvBLen=         8.0
 IPart= 17 NShTot=         544 NBatch=          68 AvBLen=         8.0
 IPart= 26 NShTot=         472 NBatch=          59 AvBLen=         8.0
 IPart= 20 NShTot=         512 NBatch=          64 AvBLen=         8.0
 IPart= 18 NShTot=         520 NBatch=          65 AvBLen=         8.0
 IPart= 10 NShTot=         568 NBatch=          71 AvBLen=         8.0
 IPart=  1 NShTot=         712 NBatch=          89 AvBLen=         8.0
 IPart= 14 NShTot=         552 NBatch=          69 AvBLen=         8.0
 IPart=  2 NShTot=         664 NBatch=          83 AvBLen=         8.0
 IPart=  4 NShTot=         632 NBatch=          79 AvBLen=         8.0
 IPart=  0 NShTot=         712 NBatch=          89 AvBLen=         8.0
 IPart=  8 NShTot=         568 NBatch=          71 AvBLen=         8.0
 IPart= 24 NShTot=         496 NBatch=          62 AvBLen=         8.0
 IPart= 13 NShTot=         560 NBatch=          70 AvBLen=         8.0
 IPart= 12 NShTot=         560 NBatch=          70 AvBLen=         8.0
 IPart= 29 NShTot=         456 NBatch=          57 AvBLen=         8.0
 IPart= 22 NShTot=         496 NBatch=          62 AvBLen=         8.0
 IPart= 21 NShTot=         512 NBatch=          64 AvBLen=         8.0
 IPart= 25 NShTot=         496 NBatch=          62 AvBLen=         8.0
 IPart= 16 NShTot=         544 NBatch=          68 AvBLen=         8.0
 IPart= 28 NShTot=         464 NBatch=          58 AvBLen=         8.0
 IPart=  6 NShTot=         584 NBatch=          73 AvBLen=         8.0
 IPart=  9 NShTot=         568 NBatch=          71 AvBLen=         8.0
 PrSmSu:  NxtVal=            161.
 l701 out
 I=    0 X=   2.526416575321D-05 Y=  -1.323314263146D-05 Z=   3.595212993091D-06
 I=    1 X=  -7.238108018840D-01 Y=  -1.525059332846D+00 Z=  -4.799568284670D-01
 I=    2 X=   7.694347702199D-04 Y=   1.691041723195D-03 Z=   2.393381338809D+00
 I=    3 X=   2.206505428038D+00 Y=   1.802127908601D-03 Z=  -9.268889918668D-01
 I=    4 X=  -1.393683544372D+00 Y=   1.710685662721D+00 Z=  -9.269101031667D-01
 I=    5 X=   7.227909389866D-01 Y=   1.525215137271D+00 Z=   4.810126007593D-01
 I=    6 X=  -2.206835958274D+00 Y=  -1.161992396046D-03 Z=   9.261569954815D-01
 I=    7 X=   1.394127601517D+00 Y=  -1.710517288687D+00 Z=   9.265609494024D-01
 I=    8 X=   1.369012181824D-04 Y=  -2.655355695874D-03 Z=  -2.393355960952D+00
 ICntrl=      2127.
 Calling FoFJK, ICntrl=      2127 FMM=F ISym2X=0 I1Cent= 0 IOpClX= 1 NMat=1 NMatS=1 NMatT=0.
 FoFJK:  IHMeth= 1 ICntrl=    2127 DoSepK=T KAlg= 0 I1Cent=   0 FoldK=F
 IRaf=         1 NMat=   1 IRICut=       1 DoRegI=T DoRafI=F ISym2E= 0.
 FoFCou: FMM=F IPFlag=           0 FMFlag=      100000 FMFlg1=         800
         NFxFlg=           0 DoJE=F BraDBF=F KetDBF=F FulRan=T
         wScrn=  0.000000 ICntrl=    2527 IOpCl=  0 I1Cent=           0 NGrid=           0
         NMat0=    1 NMatS0=      1 NMatT0=    0 NMatD0=    1 NMtDS0=    0 NMtDT0=    0
 Symmetry not used in FoFCou.
 FoFCou:  KetSym=F NOpSet=  1 NOpAb=1 NOp=  1.
 FoFCou:  CnvScl= 1.00D+00 Thresh= 1.00D-10 IAcrcy=      10.
 PrismS was handed   419123711 working-precision words and  2312 shell-pairs
 FoFCou: LinMIO=F DoNuc=F BraDBF=F KetDBF=F HaveP=T PDBF=F HaveZ=T HaveW=F
         NIJTC =      10 NIJTAt=       0 NIJTCD=       0 NIJTT =      10
         IJTBeg=       1 IJTEnd=      10 KLTBeg=       1 KLTEnd=      10
         IPTBeg=       1 IPTEnd=      10 IPTBCv=       1 IPTECv=      10
         IZTBeg=       1 IZTEnd=      10 IZTBCv=       1 IZTECv=      10
         IWTBeg=      11 IWTEnd=      10 IWTBCv=      11 IWTECv=      10
         INTBeg=       1 INTEnd=       0 IFTBCv=       1 IFTECv=      10
 NCel replicated for PrismC:     1
 CoulSu:  IncDef=  1024 NBBP=        2673828 NTPThr=   100 NPartT=   32 Incr=         835 LDynOK=F.
 CoulSu:  NPrtUS=  32 ThrOK=T IAlg=1 NPAlg=1 LenDen=           0 LWGrdD=           0 DoCopy=F.
 Enter PrismC: JobTyp=21 DoJE=F Cont=F.
 Enter PrismC: JobTyp=21 DoJE=F Cont=F.
 Enter PrismC: JobTyp=21 DoJE=F Cont=F.
 Enter PrismC: JobTyp=21 DoJE=F Cont=F.
 Enter PrismC: JobTyp=21 DoJE=F Cont=F.
 Enter PrismC: JobTyp=21 DoJE=F Cont=F.
 Enter PrismC: JobTyp=21 DoJE=F Cont=F.
 Enter PrismC: JobTyp=21 DoJE=F Cont=F.
 Enter PrismC: JobTyp=21 DoJE=F Cont=F.
 Enter PrismC: JobTyp=21 DoJE=F Cont=F.
 Enter PrismC: JobTyp=21 DoJE=F Cont=F.
 Enter PrismC: JobTyp=21 DoJE=F Cont=F.
 Enter PrismC: JobTyp=21 DoJE=F Cont=F.
 PrismC was handed    13062151 working-precision words and  2312 shell-pairs
 Enter PrismC: JobTyp=21 DoJE=F Cont=F.
 Enter PrismC: JobTyp=21 DoJE=F Cont=F.
 PrismC was handed    13062151 working-precision words and  2312 shell-pairs
 Enter PrismC: JobTyp=21 DoJE=F Cont=F.
 PrismC was handed    13062151 working-precision words and  2312 shell-pairs
 Enter PrismC: JobTyp=21 DoJE=F Cont=F.
 PrismC was handed    13062151 working-precision words and  2312 shell-pairs
 Enter PrismC: JobTyp=21 DoJE=F Cont=F.
 PrismC was handed    13062151 working-precision words and  2312 shell-pairs
 Enter PrismC: JobTyp=21 DoJE=F Cont=F.
 Enter PrismC: JobTyp=21 DoJE=F Cont=F.
 PrismC was handed    13062151 working-precision words and  2312 shell-pairs
 Enter PrismC: JobTyp=21 DoJE=F Cont=F.
 PrismC was handed    13062151 working-precision words and  2312 shell-pairs
 Enter PrismC: JobTyp=21 DoJE=F Cont=F.
 Enter PrismC: JobTyp=21 DoJE=F Cont=F.
 PrismC was handed    13062151 working-precision words and  2312 shell-pairs
 Enter PrismC: JobTyp=21 DoJE=F Cont=F.
 Enter PrismC: JobTyp=21 DoJE=F Cont=F.
 PrismC was handed    13062151 working-precision words and  2312 shell-pairs
 Enter PrismC: JobTyp=21 DoJE=F Cont=F.
 PrismC was handed    13062151 working-precision words and  2312 shell-pairs
 Enter PrismC: JobTyp=21 DoJE=F Cont=F.
 PrismC was handed    13062151 working-precision words and  2312 shell-pairs
 Enter PrismC: JobTyp=21 DoJE=F Cont=F.
 PrismC was handed    13062151 working-precision words and  2312 shell-pairs
 Enter PrismC: JobTyp=21 DoJE=F Cont=F.
 PrismC was handed    13062151 working-precision words and  2312 shell-pairs
 Enter PrismC: JobTyp=21 DoJE=F Cont=F.
 Enter PrismC: JobTyp=21 DoJE=F Cont=F.
 PrismC was handed    13062151 working-precision words and  2312 shell-pairs
 PrismC was handed    13062151 working-precision words and  2312 shell-pairs
 PrismC was handed    13062151 working-precision words and  2312 shell-pairs
 PrismC was handed    13062151 working-precision words and  2312 shell-pairs
 PrismC was handed    13062151 working-precision words and  2312 shell-pairs
 PrismC was handed    13062151 working-precision words and  2312 shell-pairs
 PrismC was handed    13062151 working-precision words and  2312 shell-pairs
 PrismC was handed    13062151 working-precision words and  2312 shell-pairs
 PrismC was handed    13062151 working-precision words and  2312 shell-pairs
 PrismC was handed    13062151 working-precision words and  2312 shell-pairs
 PrismC was handed    13062151 working-precision words and  2312 shell-pairs
 PrismC was handed    13062151 working-precision words and  2312 shell-pairs
 Enter PrismC: JobTyp=21 DoJE=F Cont=F.
 PrismC was handed    13062151 working-precision words and  2312 shell-pairs
 PrismC was handed    13062151 working-precision words and  2312 shell-pairs
 PrismC was handed    13062151 working-precision words and  2312 shell-pairs
 PrismC was handed    13062151 working-precision words and  2312 shell-pairs
 PrismC was handed    13062151 working-precision words and  2312 shell-pairs
 PrismC was handed    13062151 working-precision words and  2312 shell-pairs
 PrismC:  IPart=     0 DynPar=T LinDyn=F Incr=         835 UseFst=F UseS4=T IGathr=2.
 PrismC was handed    13062151 working-precision words and  2312 shell-pairs
 IPart=  6 NShTot=       68958 NShNF=       68958 NShFF=           0 NBatch=         490 AvBLen=       140.7
 IPart=  2 NShTot=       63810 NShNF=       63810 NShFF=           0 NBatch=         522 AvBLen=       122.2
 IPart= 25 NShTot=       63175 NShNF=       63175 NShFF=           0 NBatch=         549 AvBLen=       115.1
 IPart=  4 NShTot=       62829 NShNF=       62829 NShFF=           0 NBatch=         565 AvBLen=       111.2
 IPart= 18 NShTot=       67444 NShNF=       67444 NShFF=           0 NBatch=         531 AvBLen=       127.0
 IPart= 29 NShTot=       64807 NShNF=       64807 NShFF=           0 NBatch=         519 AvBLen=       124.9
 IPart= 20 NShTot=       62497 NShNF=       62497 NShFF=           0 NBatch=         586 AvBLen=       106.7
 IPart= 24 NShTot=       66267 NShNF=       66267 NShFF=           0 NBatch=         563 AvBLen=       117.7
 IPart=  0 NShTot=       41209 NShNF=       41209 NShFF=           0 NBatch=         211 AvBLen=       195.3
 IPart=  5 NShTot=       64260 NShNF=       64260 NShFF=           0 NBatch=         561 AvBLen=       114.5
 IPart= 19 NShTot=       61191 NShNF=       61191 NShFF=           0 NBatch=         554 AvBLen=       110.5
 IPart=  7 NShTot=       60381 NShNF=       60381 NShFF=           0 NBatch=         290 AvBLen=       208.2
 IPart= 23 NShTot=       63760 NShNF=       63760 NShFF=           0 NBatch=         545 AvBLen=       117.0
 IPart= 30 NShTot=       64805 NShNF=       64805 NShFF=           0 NBatch=         580 AvBLen=       111.7
 IPart=  1 NShTot=       70688 NShNF=       70688 NShFF=           0 NBatch=         604 AvBLen=       117.0
 IPart= 27 NShTot=       65134 NShNF=       65134 NShFF=           0 NBatch=         547 AvBLen=       119.1
 IPart= 17 NShTot=       41930 NShNF=       41930 NShFF=           0 NBatch=         471 AvBLen=        89.0
 IPart=  8 NShTot=       63367 NShNF=       63367 NShFF=           0 NBatch=         413 AvBLen=       153.4
 IPart= 26 NShTot=       64495 NShNF=       64495 NShFF=           0 NBatch=         539 AvBLen=       119.7
 IPart= 10 NShTot=       70045 NShNF=       70045 NShFF=           0 NBatch=         424 AvBLen=       165.2
 IPart= 22 NShTot=       70512 NShNF=       70512 NShFF=           0 NBatch=         568 AvBLen=       124.1
 IPart= 21 NShTot=       71058 NShNF=       71058 NShFF=           0 NBatch=         574 AvBLen=       123.8
 IPart= 12 NShTot=       70552 NShNF=       70552 NShFF=           0 NBatch=         563 AvBLen=       125.3
 IPart= 13 NShTot=       67754 NShNF=       67754 NShFF=           0 NBatch=         553 AvBLen=       122.5
 IPart= 11 NShTot=       68498 NShNF=       68498 NShFF=           0 NBatch=         574 AvBLen=       119.3
 IPart= 16 NShTot=       65701 NShNF=       65701 NShFF=           0 NBatch=         516 AvBLen=       127.3
 IPart=  3 NShTot=       70783 NShNF=       70783 NShFF=           0 NBatch=         570 AvBLen=       124.2
 IPart=  9 NShTot=       66551 NShNF=       66551 NShFF=           0 NBatch=         564 AvBLen=       118.0
 IPart= 31 NShTot=       58543 NShNF=       58543 NShFF=           0 NBatch=         486 AvBLen=       120.5
 IPart= 15 NShTot=       75107 NShNF=       75107 NShFF=           0 NBatch=         542 AvBLen=       138.6
 IPart= 28 NShTot=       59413 NShNF=       59413 NShFF=           0 NBatch=         582 AvBLen=       102.1
 IPart= 14 NShTot=       59477 NShNF=       59477 NShFF=           0 NBatch=         346 AvBLen=       171.9
 CoulSu:  NxtVal=        2970096.
 FoFCou: FMM=F IPFlag=           0 FMFlag=      100000 FMFlg1=         800
         NFxFlg=           0 DoJE=F BraDBF=F KetDBF=F FulRan=T
         wScrn=  0.000000 ICntrl=    2127 IOpCl=  1 I1Cent=           0 NGrid=           0
         NMat0=    1 NMatS0=      0 NMatT0=    1 NMatD0=    1 NMtDS0=    0 NMtDT0=    0
         CW=    0.222036    0.777964
         WU=    0.000000   12.500000
 Symmetry not used in FoFCou.
 FoFCou:  KetSym=F NOpSet=  1 NOpAb=1 NOp=  1.
 FoFCou:  CnvScl= 1.00D+00 Thresh= 1.00D-10 IAcrcy=      10.
 PrismS was handed   419120364 working-precision words and  2312 shell-pairs
 FoFCou: LinMIO=F DoNuc=F BraDBF=F KetDBF=F HaveP=T PDBF=F HaveZ=T HaveW=F
         NIJTC =      10 NIJTAt=       0 NIJTCD=       0 NIJTT =      10
         IJTBeg=       1 IJTEnd=      10 KLTBeg=       1 KLTEnd=      10
         IPTBeg=       1 IPTEnd=      10 IPTBCv=       1 IPTECv=      10
         IZTBeg=       1 IZTEnd=      10 IZTBCv=       1 IZTECv=      10
         IWTBeg=      11 IWTEnd=      10 IWTBCv=      11 IWTECv=      10
         INTBeg=       1 INTEnd=       0 IFTBCv=       1 IFTECv=      10
 NCel replicated for PrismC:     1
 CoulSu:  IncDef=  1024 NBBP=        2673828 NTPThr=   100 NPartT=   32 Incr=         835 LDynOK=F.
 CoulSu:  NPrtUS=  32 ThrOK=T IAlg=1 NPAlg=1 LenDen=           0 LWGrdD=           0 DoCopy=F.
 Enter PrismC: JobTyp=21 DoJE=F Cont=F.
 Linear combination for Coulomb/exchange, wScrn=  0.000000
 CW=    0.222036    0.777964
 WU=    0.000000   12.500000
 PrismC:  IPart=     0 DynPar=T LinDyn=F Incr=         835 UseFst=F UseS4=T IGathr=2.
 Enter PrismC: JobTyp=21 DoJE=F Cont=F.
 Enter PrismC: JobTyp=21 DoJE=F Cont=F.
 Linear combination for Coulomb/exchange, wScrn=  0.000000
 CW=    0.222036    0.777964
 WU=    0.000000   12.500000
 Enter PrismC: JobTyp=21 DoJE=F Cont=F.
 Linear combination for Coulomb/exchange, wScrn=  0.000000
 CW=    0.222036    0.777964
 WU=    0.000000   12.500000
 Enter PrismC: JobTyp=21 DoJE=F Cont=F.
 Linear combination for Coulomb/exchange, wScrn=  0.000000
 CW=    0.222036    0.777964
 WU=    0.000000   12.500000
 Enter PrismC: JobTyp=21 DoJE=F Cont=F.
 Linear combination for Coulomb/exchange, wScrn=  0.000000
 CW=    0.222036    0.777964
 WU=    0.000000   12.500000
 Enter PrismC: JobTyp=21 DoJE=F Cont=F.
 Linear combination for Coulomb/exchange, wScrn=  0.000000
 CW=    0.222036    0.777964
 WU=    0.000000   12.500000
 Enter PrismC: JobTyp=21 DoJE=F Cont=F.
 Linear combination for Coulomb/exchange, wScrn=  0.000000
 CW=    0.222036    0.777964
 WU=    0.000000   12.500000
 PrismC was handed    13062046 working-precision words and  2312 shell-pairs
 Enter PrismC: JobTyp=21 DoJE=F Cont=F.
 Linear combination for Coulomb/exchange, wScrn=  0.000000
 CW=    0.222036    0.777964
 WU=    0.000000   12.500000
 Enter PrismC: JobTyp=21 DoJE=F Cont=F.
 Linear combination for Coulomb/exchange, wScrn=  0.000000
 CW=    0.222036    0.777964
 WU=    0.000000   12.500000
 Enter PrismC: JobTyp=21 DoJE=F Cont=F.
 Enter PrismC: JobTyp=21 DoJE=F Cont=F.
 Linear combination for Coulomb/exchange, wScrn=  0.000000
 CW=    0.222036    0.777964
 WU=    0.000000   12.500000
 Enter PrismC: JobTyp=21 DoJE=F Cont=F.
 Linear combination for Coulomb/exchange, wScrn=  0.000000
 CW=    0.222036    0.777964
 WU=    0.000000   12.500000
 Enter PrismC: JobTyp=21 DoJE=F Cont=F.
 Linear combination for Coulomb/exchange, wScrn=  0.000000
 CW=    0.222036    0.777964
 WU=    0.000000   12.500000
 Enter PrismC: JobTyp=21 DoJE=F Cont=F.
 Linear combination for Coulomb/exchange, wScrn=  0.000000
 CW=    0.222036    0.777964
 WU=    0.000000   12.500000
 Enter PrismC: JobTyp=21 DoJE=F Cont=F.
 Linear combination for Coulomb/exchange, wScrn=  0.000000
 CW=    0.222036    0.777964
 WU=    0.000000   12.500000
 Enter PrismC: JobTyp=21 DoJE=F Cont=F.
 Linear combination for Coulomb/exchange, wScrn=  0.000000
 CW=    0.222036    0.777964
 WU=    0.000000   12.500000
 Enter PrismC: JobTyp=21 DoJE=F Cont=F.
 PrismC was handed    13062046 working-precision words and  2312 shell-pairs
 Enter PrismC: JobTyp=21 DoJE=F Cont=F.
 Linear combination for Coulomb/exchange, wScrn=  0.000000
 CW=    0.222036    0.777964
 WU=    0.000000   12.500000
 Linear combination for Coulomb/exchange, wScrn=  0.000000
 CW=    0.222036    0.777964
 WU=    0.000000   12.500000
 Enter PrismC: JobTyp=21 DoJE=F Cont=F.
 Linear combination for Coulomb/exchange, wScrn=  0.000000
 CW=    0.222036    0.777964
 WU=    0.000000   12.500000
 Enter PrismC: JobTyp=21 DoJE=F Cont=F.
 Linear combination for Coulomb/exchange, wScrn=  0.000000
 CW=    0.222036    0.777964
 WU=    0.000000   12.500000
 Enter PrismC: JobTyp=21 DoJE=F Cont=F.
 Linear combination for Coulomb/exchange, wScrn=  0.000000
 CW=    0.222036    0.777964
 WU=    0.000000   12.500000
 Enter PrismC: JobTyp=21 DoJE=F Cont=F.
 Linear combination for Coulomb/exchange, wScrn=  0.000000
 CW=    0.222036    0.777964
 WU=    0.000000   12.500000
 Enter PrismC: JobTyp=21 DoJE=F Cont=F.
 Linear combination for Coulomb/exchange, wScrn=  0.000000
 CW=    0.222036    0.777964
 WU=    0.000000   12.500000
 PrismC was handed    13062046 working-precision words and  2312 shell-pairs
 Enter PrismC: JobTyp=21 DoJE=F Cont=F.
 Linear combination for Coulomb/exchange, wScrn=  0.000000
 CW=    0.222036    0.777964
 WU=    0.000000   12.500000
 PrismC was handed    13062046 working-precision words and  2312 shell-pairs
 PrismC was handed    13062046 working-precision words and  2312 shell-pairs
 PrismC was handed    13062046 working-precision words and  2312 shell-pairs
 Enter PrismC: JobTyp=21 DoJE=F Cont=F.
 Linear combination for Coulomb/exchange, wScrn=  0.000000
 CW=    0.222036    0.777964
 WU=    0.000000   12.500000
 Enter PrismC: JobTyp=21 DoJE=F Cont=F.
 Linear combination for Coulomb/exchange, wScrn=  0.000000
 CW=    0.222036    0.777964
 WU=    0.000000   12.500000
 Enter PrismC: JobTyp=21 DoJE=F Cont=F.
 Linear combination for Coulomb/exchange, wScrn=  0.000000
 CW=    0.222036    0.777964
 WU=    0.000000   12.500000
 Enter PrismC: JobTyp=21 DoJE=F Cont=F.
 Linear combination for Coulomb/exchange, wScrn=  0.000000
 CW=    0.222036    0.777964
 WU=    0.000000   12.500000
 Enter PrismC: JobTyp=21 DoJE=F Cont=F.
 Linear combination for Coulomb/exchange, wScrn=  0.000000
 CW=    0.222036    0.777964
 WU=    0.000000   12.500000
 Linear combination for Coulomb/exchange, wScrn=  0.000000
 CW=    0.222036    0.777964
 WU=    0.000000   12.500000
 Enter PrismC: JobTyp=21 DoJE=F Cont=F.
 Linear combination for Coulomb/exchange, wScrn=  0.000000
 CW=    0.222036    0.777964
 WU=    0.000000   12.500000
 PrismC was handed    13062046 working-precision words and  2312 shell-pairs
 PrismC was handed    13062046 working-precision words and  2312 shell-pairs
 PrismC was handed    13062046 working-precision words and  2312 shell-pairs
 PrismC was handed    13062046 working-precision words and  2312 shell-pairs
 PrismC was handed    13062046 working-precision words and  2312 shell-pairs
 PrismC was handed    13062046 working-precision words and  2312 shell-pairs
 PrismC was handed    13062046 working-precision words and  2312 shell-pairs
 PrismC was handed    13062046 working-precision words and  2312 shell-pairs
 PrismC was handed    13062046 working-precision words and  2312 shell-pairs
 PrismC was handed    13062046 working-precision words and  2312 shell-pairs
 PrismC was handed    13062046 working-precision words and  2312 shell-pairs
 PrismC was handed    13062046 working-precision words and  2312 shell-pairs
 PrismC was handed    13062046 working-precision words and  2312 shell-pairs
 PrismC was handed    13062046 working-precision words and  2312 shell-pairs
 PrismC was handed    13062046 working-precision words and  2312 shell-pairs
 PrismC was handed    13062046 working-precision words and  2312 shell-pairs
 PrismC was handed    13062046 working-precision words and  2312 shell-pairs
 Enter PrismC: JobTyp=21 DoJE=F Cont=F.
 Linear combination for Coulomb/exchange, wScrn=  0.000000
 CW=    0.222036    0.777964
 WU=    0.000000   12.500000
 PrismC was handed    13062046 working-precision words and  2312 shell-pairs
 PrismC was handed    13062046 working-precision words and  2312 shell-pairs
 PrismC was handed    13062046 working-precision words and  2312 shell-pairs
 PrismC was handed    13062046 working-precision words and  2312 shell-pairs
 PrismC was handed    13062046 working-precision words and  2312 shell-pairs
 PrismC was handed    13062046 working-precision words and  2312 shell-pairs
 PrismC was handed    13062046 working-precision words and  2312 shell-pairs
 Linear combination for Coulomb/exchange, wScrn=  0.000000
 CW=    0.222036    0.777964
 WU=    0.000000   12.500000
 PrismC was handed    13062046 working-precision words and  2312 shell-pairs
 PrismC was handed    13062046 working-precision words and  2312 shell-pairs
 IPart=  5 NShTot=       67779 NShNF=       67779 NShFF=           0 NBatch=         714 AvBLen=        94.9
 IPart= 25 NShTot=       61161 NShNF=       61161 NShFF=           0 NBatch=         698 AvBLen=        87.6
 IPart= 26 NShTot=       56859 NShNF=       56859 NShFF=           0 NBatch=         548 AvBLen=       103.8
 IPart=  9 NShTot=       68399 NShNF=       68399 NShFF=           0 NBatch=         575 AvBLen=       119.0
 IPart=  3 NShTot=       60074 NShNF=       60074 NShFF=           0 NBatch=         594 AvBLen=       101.1
 IPart= 12 NShTot=       61760 NShNF=       61760 NShFF=           0 NBatch=         582 AvBLen=       106.1
 IPart=  0 NShTot=       68795 NShNF=       68795 NShFF=           0 NBatch=         714 AvBLen=        96.4
 IPart= 14 NShTot=       64081 NShNF=       64081 NShFF=           0 NBatch=         683 AvBLen=        93.8
 IPart= 22 NShTot=       56171 NShNF=       56171 NShFF=           0 NBatch=         567 AvBLen=        99.1
 IPart= 31 NShTot=       61726 NShNF=       61726 NShFF=           0 NBatch=         598 AvBLen=       103.2
 IPart= 29 NShTot=       72953 NShNF=       72953 NShFF=           0 NBatch=         689 AvBLen=       105.9
 IPart= 27 NShTot=       48814 NShNF=       48814 NShFF=           0 NBatch=         650 AvBLen=        75.1
 IPart= 28 NShTot=       70558 NShNF=       70558 NShFF=           0 NBatch=         696 AvBLen=       101.4
 IPart= 15 NShTot=       72322 NShNF=       72322 NShFF=           0 NBatch=         645 AvBLen=       112.1
 IPart=  2 NShTot=       59529 NShNF=       59529 NShFF=           0 NBatch=         549 AvBLen=       108.4
 IPart= 13 NShTot=       63515 NShNF=       63515 NShFF=           0 NBatch=         696 AvBLen=        91.3
 IPart=  4 NShTot=       70131 NShNF=       70131 NShFF=           0 NBatch=         603 AvBLen=       116.3
 IPart=  1 NShTot=       62051 NShNF=       62051 NShFF=           0 NBatch=         681 AvBLen=        91.1
 IPart= 10 NShTot=       74669 NShNF=       74669 NShFF=           0 NBatch=         716 AvBLen=       104.3
 IPart= 30 NShTot=       61459 NShNF=       61459 NShFF=           0 NBatch=         700 AvBLen=        87.8
 IPart= 16 NShTot=       76872 NShNF=       76872 NShFF=           0 NBatch=         723 AvBLen=       106.3
 IPart= 19 NShTot=       62559 NShNF=       62559 NShFF=           0 NBatch=         708 AvBLen=        88.4
 IPart= 18 NShTot=       63878 NShNF=       63878 NShFF=           0 NBatch=         562 AvBLen=       113.7
 IPart= 11 NShTot=       65623 NShNF=       65623 NShFF=           0 NBatch=         515 AvBLen=       127.4
 IPart=  6 NShTot=       62545 NShNF=       62545 NShFF=           0 NBatch=         514 AvBLen=       121.7
 IPart= 23 NShTot=       71676 NShNF=       71676 NShFF=           0 NBatch=         719 AvBLen=        99.7
 IPart= 20 NShTot=       65189 NShNF=       65189 NShFF=           0 NBatch=         707 AvBLen=        92.2
 IPart= 17 NShTot=       57603 NShNF=       57603 NShFF=           0 NBatch=         486 AvBLen=       118.5
 IPart= 24 NShTot=       72579 NShNF=       72579 NShFF=           0 NBatch=         711 AvBLen=       102.1
 IPart=  8 NShTot=       63082 NShNF=       63082 NShFF=           0 NBatch=         591 AvBLen=       106.7
 IPart= 21 NShTot=       76919 NShNF=       76919 NShFF=           0 NBatch=         752 AvBLen=       102.3
 IPart=  7 NShTot=       27283 NShNF=       27283 NShFF=           0 NBatch=         277 AvBLen=        98.5
 CoulSu:  NxtVal=        2970096.
 ReadGW:  IGet=0 IStart=           1 Next=           1 LGW=           0.
 Remaining memory in FofDFT      399.87 Mw
 CkSvGd:  ISavGI=        -1 IRadAn=       5 IRASav=       5 ISavGd=        -1.
 CalDSu:  NPrtUS=  32 ThrOK=T IAlg=1 NPAlg=2 DoDPD=T LenP=       33930 LenD1P=             0.
 IPart=  0 IRanGd=          0 ScrnBf=T ScrnGd=T RCrit=4.00D+00 DoMicB=T.
 IPart= 31         5046 of         5420 points in       6 batches and       29 microbatches, Max-NSigAt=       8 Max-NSgAt2=       8
 IPart= 12         4952 of         5050 points in       5 batches and       21 microbatches, Max-NSigAt=       8 Max-NSgAt2=       8
 IPart= 18         4975 of         5552 points in       7 batches and       31 microbatches, Max-NSigAt=       8 Max-NSgAt2=       8
 IPart= 27         4885 of         5120 points in       6 batches and       32 microbatches, Max-NSigAt=       8 Max-NSgAt2=       8
 IPart= 15         5817 of         6498 points in       8 batches and       44 microbatches, Max-NSigAt=       8 Max-NSgAt2=       8
 IPart= 24         5408 of         5956 points in       6 batches and       18 microbatches, Max-NSigAt=       8 Max-NSgAt2=       8
 IPart= 16         5037 of         5262 points in       5 batches and       18 microbatches, Max-NSigAt=       8 Max-NSgAt2=       8
 IPart= 20         4884 of         5392 points in       6 batches and       23 microbatches, Max-NSigAt=       8 Max-NSgAt2=       8
 IPart=  4         5594 of         6142 points in       7 batches and       20 microbatches, Max-NSigAt=       8 Max-NSgAt2=       8
 IPart=  0         5432 of         6008 points in       7 batches and       33 microbatches, Max-NSigAt=       8 Max-NSgAt2=       8
 IPart= 11         5544 of         6366 points in       8 batches and       50 microbatches, Max-NSigAt=       8 Max-NSgAt2=       8
 IPart= 21         5935 of         6532 points in       7 batches and       15 microbatches, Max-NSigAt=       8 Max-NSgAt2=       8
 IPart=  3         6192 of         6930 points in       8 batches and       35 microbatches, Max-NSigAt=       8 Max-NSgAt2=       8
 IPart=  8         5395 of         5694 points in       6 batches and       21 microbatches, Max-NSigAt=       8 Max-NSgAt2=       8
 IPart= 10         5206 of         5530 points in       6 batches and       60 microbatches, Max-NSigAt=       8 Max-NSgAt2=       8
 IPart= 30         5095 of         5364 points in       6 batches and       53 microbatches, Max-NSigAt=       8 Max-NSgAt2=       8
 IPart=  9         5616 of         6326 points in       7 batches and       52 microbatches, Max-NSigAt=       8 Max-NSgAt2=       8
 IPart= 23         5227 of         5750 points in       7 batches and       55 microbatches, Max-NSigAt=       8 Max-NSgAt2=       8
 IPart= 19         4985 of         5576 points in       7 batches and       41 microbatches, Max-NSigAt=       8 Max-NSgAt2=       8
 IPart=  2         5013 of         5142 points in       5 batches and       27 microbatches, Max-NSigAt=       8 Max-NSgAt2=       8
 IPart= 29         5997 of         6704 points in       8 batches and       14 microbatches, Max-NSigAt=       8 Max-NSgAt2=       8
 IPart=  5         5543 of         5956 points in       6 batches and       32 microbatches, Max-NSigAt=       8 Max-NSgAt2=       8
 IPart= 28         5952 of         6354 points in       7 batches and       42 microbatches, Max-NSigAt=       8 Max-NSgAt2=       8
 IPart=  6         5509 of         5724 points in       6 batches and       25 microbatches, Max-NSigAt=       8 Max-NSgAt2=       8
 IPart=  1         5665 of         6128 points in       7 batches and       37 microbatches, Max-NSigAt=       8 Max-NSgAt2=       8
 IPart= 13         5812 of         6036 points in       6 batches and       32 microbatches, Max-NSigAt=       8 Max-NSgAt2=       8
 IPart= 26         5315 of         5524 points in       6 batches and       49 microbatches, Max-NSigAt=       8 Max-NSgAt2=       8
 IPart=  7         5231 of         5708 points in       7 batches and       34 microbatches, Max-NSigAt=       8 Max-NSgAt2=       8
 IPart= 14         5749 of         6020 points in       6 batches and       35 microbatches, Max-NSigAt=       8 Max-NSgAt2=       8
 IPart= 17         5591 of         5928 points in       6 batches and       38 microbatches, Max-NSigAt=       8 Max-NSgAt2=       8
 IPart= 25         5685 of         5952 points in       6 batches and       42 microbatches, Max-NSigAt=       8 Max-NSgAt2=       8
 IPart= 22         5398 of         5984 points in       7 batches and       57 microbatches, Max-NSigAt=       8 Max-NSgAt2=       8
 Forces at end of L703
 I=    0 X=   2.526416575321D-05 Y=  -1.323314263146D-05 Z=   3.595212993091D-06
 I=    1 X=  -1.170242117738D-02 Y=  -2.464143230199D-02 Z=  -7.663008833609D-03
 I=    2 X=   4.349887471301D-03 Y=   9.164004881405D-03 Z=  -1.205272410358D-03
 I=    3 X=   6.231685001268D-04 Y=   9.185885839653D-03 Z=   4.434169351730D-03
 I=    4 X=   6.727986199992D-03 Y=   6.288637699257D-03 Z=   4.433196139155D-03
 I=    5 X=   1.160540716699D-02 Y=   2.464466007584D-02 Z=   7.799145061959D-03
 I=    6 X=  -5.765354244889D-04 Y=  -9.169307985665D-03 Z=  -4.470491502836D-03
 I=    7 X=  -6.699510254171D-03 Y=  -6.289514847101D-03 Z=  -4.476476385706D-03
 I=    8 X=  -4.327982482378D-03 Y=  -9.182933361389D-03 Z=   1.148738579667D-03
 FrcOut:
 IF    =    48 IFX   =    72 IFXYZ =    96
 IFFX  =   120 IFFFX =   420 IFLen =    24
 IFFLen=   300 IFFFLn=     0 IEDerv=   420
 LEDerv=  1205 IFroze=  1907 ICStrt=108264
 FCEst1:  Generated internal coordinate force constants:
                1             2             3             4             5 
      1  0.566332D+00
      2 -0.126121D+00  0.360483D+00
      3 -0.397996D-01 -0.838488D-01  0.600054D+00
      4 -0.838901D-01  0.104363D-01 -0.115838D-01  0.623867D-01
      5  0.104363D-01 -0.668518D-01 -0.244044D-01 -0.429612D-02  0.553695D-01
      6  0.000000D+00  0.000000D+00 -0.355866D+00  0.000000D+00  0.000000D+00
      7 -0.319045D+00  0.404235D-02  0.988701D-01  0.149151D-01  0.132823D-03
      8 -0.184524D-01 -0.668169D-01  0.190720D-01  0.342692D-03  0.968166D-03
      9  0.872962D-01  0.961477D-02 -0.120584D+00  0.354756D-01  0.315920D-03
     10 -0.160584D+00  0.110859D+00 -0.477337D-01  0.631024D-02 -0.667923D-02
     11  0.133354D+00 -0.225279D+00  0.886614D-01 -0.688914D-02  0.957301D-02
     12 -0.477433D-01  0.737150D-01 -0.120583D+00 -0.221844D-01  0.276851D-01
     13 -0.433088D-02  0.143799D-02  0.454284D-03  0.278167D-03  0.406259D-03
     14  0.143695D-02 -0.198292D-02  0.954974D-03  0.406301D-03  0.941045D-03
     15  0.453625D-03  0.954276D-03 -0.471280D-02 -0.170753D-02 -0.359648D-02
     16 -0.568318D-03  0.157678D-03  0.355627D-03 -0.187469D-03  0.889986D-04
     17 -0.315852D-02  0.942228D-03  0.176742D-02  0.229746D-03 -0.109069D-03
     18 -0.135117D-02  0.374841D-03  0.845618D-03 -0.446413D-03  0.211929D-03
     19  0.180759D-02 -0.121907D-02  0.114480D-02 -0.296569D-03  0.140792D-03
     20  0.209652D-02 -0.143462D-02  0.139344D-02  0.000000D+00  0.000000D+00
     21  0.114436D-02 -0.809915D-03  0.845739D-03  0.446299D-03 -0.211874D-03
     22  0.279113D-03  0.405882D-03 -0.170763D-02  0.484074D-03 -0.229807D-03
     23  0.407711D-03  0.940211D-03 -0.359602D-02 -0.229885D-03  0.109135D-03
     24  0.000000D+00  0.000000D+00  0.000000D+00  0.000000D+00  0.000000D+00
                6             7             8             9            10 
      6  0.355866D+00
      7  0.000000D+00  0.311681D+00
      8  0.000000D+00 -0.166626D-02  0.553510D-01
      9  0.000000D+00 -0.104813D+00 -0.396321D-02  0.106449D+00
     10  0.000000D+00 -0.698259D-02  0.229336D-01 -0.166082D-01  0.159448D+00
     11  0.000000D+00 -0.266641D-02  0.955630D-02 -0.634208D-02 -0.125895D+00
     12  0.000000D+00  0.558674D-02 -0.168771D-01  0.132881D-01  0.631968D-01
     13  0.000000D+00 -0.568015D-03 -0.315766D-02 -0.135103D-02  0.180771D-02
     14  0.000000D+00  0.157472D-03  0.941533D-03  0.374548D-03 -0.121926D-02
     15  0.000000D+00  0.355825D-03  0.176833D-02  0.846332D-03  0.114522D-02
     16  0.000000D+00  0.726566D-04 -0.889783D-04  0.172814D-03  0.114864D-03
     17  0.000000D+00 -0.890413D-04  0.109044D-03 -0.211786D-03 -0.140767D-03
     18  0.000000D+00  0.173014D-03 -0.211881D-03  0.411516D-03  0.273522D-03
     19  0.000000D+00  0.114940D-03 -0.140760D-03  0.273386D-03  0.181711D-03
     20  0.000000D+00  0.000000D+00  0.000000D+00  0.000000D+00  0.000000D+00
     21  0.000000D+00 -0.172970D-03  0.211826D-03 -0.411411D-03 -0.273452D-03
     22  0.000000D+00 -0.187610D-03  0.229755D-03 -0.446233D-03 -0.296596D-03
     23  0.000000D+00  0.890955D-04 -0.109110D-03  0.211915D-03  0.140853D-03
     24  0.000000D+00  0.000000D+00  0.000000D+00  0.000000D+00  0.000000D+00
               11            12            13            14            15 
     11  0.207584D+00
     12 -0.837130D-01  0.106449D+00
     13  0.209610D-02  0.114422D-02  0.566548D+00
     14 -0.143447D-02 -0.809905D-03 -0.126174D+00  0.360444D+00
     15  0.139359D-02  0.845914D-03 -0.398731D-01 -0.837205D-01  0.599876D+00
     16  0.000000D+00 -0.172814D-03 -0.319211D+00  0.409711D-02  0.988482D-01
     17  0.000000D+00  0.211785D-03 -0.184074D-01 -0.668374D-01  0.190435D-01
     18  0.000000D+00 -0.411515D-03  0.872723D-01  0.959295D-02 -0.120561D+00
     19  0.000000D+00 -0.273385D-03 -0.160644D+00  0.110871D+00 -0.477363D-01
     20  0.000000D+00  0.000000D+00  0.133362D+00 -0.225247D+00  0.886561D-01
     21  0.000000D+00  0.411410D-03 -0.477365D-01  0.737053D-01 -0.120552D+00
     22  0.000000D+00  0.446231D-03 -0.838799D-01  0.104244D-01 -0.114859D-01
     23  0.000000D+00 -0.211914D-03  0.104365D-01 -0.668248D-01 -0.244988D-01
     24  0.000000D+00  0.000000D+00  0.898039D-04 -0.973605D-04 -0.355743D+00
               16            17            18            19            20 
     16  0.311848D+00
     17 -0.172178D-02  0.553644D-01
     18 -0.104789D+00 -0.393193D-02  0.106411D+00
     19 -0.697311D-02  0.229340D-01 -0.166128D-01  0.159498D+00
     20 -0.266445D-02  0.956244D-02 -0.634826D-02 -0.125907D+00  0.207552D+00
     21  0.557986D-02 -0.168788D-01  0.132927D-01  0.631997D-01 -0.836955D-01
     22  0.149041D-01  0.353796D-03  0.354803D-01  0.631164D-02 -0.688723D-02
     23  0.131476D-03  0.968310D-03  0.312452D-03 -0.667879D-02  0.956736D-02
     24  0.507713D-05  0.000000D+00  0.120866D-04  0.450297D-05 -0.571002D-05
               21            22            23            24 
     21  0.106431D+00
     22 -0.221874D-01  0.623852D-01
     23  0.276789D-01 -0.429691D-02  0.553489D-01
     24 -0.172970D-04 -0.993374D-04  0.103476D-03  0.355747D+00
 Quadrupole    =-1.01694113D+00 2.62542271D+00-1.60848158D+00
                 2.23149525D+00 7.02850433D-01 1.48194649D+00
 -------------------------------------------------------------------
 Center     Atomic                   Forces (Hartrees/Bohr)
 Number     Number              X              Y              Z
 -------------------------------------------------------------------
      1        6           0.011702421    0.024641432    0.007663009
      2        1          -0.004349887   -0.009164005    0.001205272
      3        1          -0.000623169   -0.009185886   -0.004434169
      4        1          -0.006727986   -0.006288638   -0.004433196
      5        6          -0.011605407   -0.024644660   -0.007799145
      6        1           0.000576535    0.009169308    0.004470492
      7        1           0.006699510    0.006289515    0.004476476
      8        1           0.004327982    0.009182933   -0.001148739
 -------------------------------------------------------------------
 Cartesian Forces:  Max     0.024644660 RMS     0.009644172
 From PutF, contents of force:
   1    0.1205272410D-02
   2    0.1144090556D-02
   3    0.1148036888D-02
   4    0.8863946039D-02
   5    0.8858392049D-02
   6   -0.1734330039D-01
   7    0.1201779092D-02
   8    0.1148657907D-02
   9    0.1147017786D-02
  10    0.8876618387D-02
  11    0.8859188485D-02
  12    0.1733386679D-01
  13    0.8141911515D-06
  14   -0.3075586853D-05
  15   -0.7029050692D-05
  16   -0.5096711731D-05
  17   -0.4094472924D-05
  18    0.3342572331D-05
 -----------------------------------------------------------------------------------------------
                       Internal Coordinate Forces (Hartree/Bohr or radian)
  Cent   Atom   N1       Length/X         N2         Alpha/Y        N3         Beta/Z          J
 -----------------------------------------------------------------------------------------------
      1  C 
      2  H        1   0.001205(     1)
      3  H        1   0.001144(     2)      2   0.008864(     8)
      4  H        1   0.001148(     3)      2   0.008858(     9)      3  -0.017343(    14)     0
      5  C        1   0.000003(     4)      2  -0.000004(    10)      3  -0.000005(    15)     0
      6  H        5   0.001202(     5)      1   0.000001(    11)      2  -0.000007(    16)     0
      7  H        5   0.001149(     6)      6   0.008877(    12)      1  -0.000003(    17)     0
      8  H        5   0.001147(     7)      6   0.008859(    13)      7   0.017334(    18)     0
 -----------------------------------------------------------------------------------------------
 Internal  Forces:  Max     0.017343300 RMS     0.007163690
 Force constants in Cartesian coordinates: 
                1             2             3             4             5 
      1  0.566332D+00
      2 -0.126121D+00  0.360483D+00
      3 -0.397996D-01 -0.838488D-01  0.600054D+00
      4 -0.838901D-01  0.104363D-01 -0.115838D-01  0.623867D-01
      5  0.104363D-01 -0.668518D-01 -0.244044D-01 -0.429612D-02  0.553695D-01
      6  0.000000D+00  0.000000D+00 -0.355866D+00  0.000000D+00  0.000000D+00
      7 -0.319045D+00  0.404235D-02  0.988701D-01  0.149151D-01  0.132823D-03
      8 -0.184524D-01 -0.668169D-01  0.190720D-01  0.342692D-03  0.968166D-03
      9  0.872962D-01  0.961477D-02 -0.120584D+00  0.354756D-01  0.315920D-03
     10 -0.160584D+00  0.110859D+00 -0.477337D-01  0.631024D-02 -0.667923D-02
     11  0.133354D+00 -0.225279D+00  0.886614D-01 -0.688914D-02  0.957301D-02
     12 -0.477433D-01  0.737150D-01 -0.120583D+00 -0.221844D-01  0.276851D-01
     13 -0.433088D-02  0.143799D-02  0.454284D-03  0.278167D-03  0.406259D-03
     14  0.143695D-02 -0.198292D-02  0.954974D-03  0.406301D-03  0.941045D-03
     15  0.453625D-03  0.954276D-03 -0.471280D-02 -0.170753D-02 -0.359648D-02
     16 -0.568318D-03  0.157678D-03  0.355627D-03 -0.187469D-03  0.889986D-04
     17 -0.315852D-02  0.942228D-03  0.176742D-02  0.229746D-03 -0.109069D-03
     18 -0.135117D-02  0.374841D-03  0.845618D-03 -0.446413D-03  0.211929D-03
     19  0.180759D-02 -0.121907D-02  0.114480D-02 -0.296569D-03  0.140792D-03
     20  0.209652D-02 -0.143462D-02  0.139344D-02  0.000000D+00  0.000000D+00
     21  0.114436D-02 -0.809915D-03  0.845739D-03  0.446299D-03 -0.211874D-03
     22  0.279113D-03  0.405882D-03 -0.170763D-02  0.484074D-03 -0.229807D-03
     23  0.407711D-03  0.940211D-03 -0.359602D-02 -0.229885D-03  0.109135D-03
     24  0.000000D+00  0.000000D+00  0.000000D+00  0.000000D+00  0.000000D+00
                6             7             8             9            10 
      6  0.355866D+00
      7  0.000000D+00  0.311681D+00
      8  0.000000D+00 -0.166626D-02  0.553510D-01
      9  0.000000D+00 -0.104813D+00 -0.396321D-02  0.106449D+00
     10  0.000000D+00 -0.698259D-02  0.229336D-01 -0.166082D-01  0.159448D+00
     11  0.000000D+00 -0.266641D-02  0.955630D-02 -0.634208D-02 -0.125895D+00
     12  0.000000D+00  0.558674D-02 -0.168771D-01  0.132881D-01  0.631968D-01
     13  0.000000D+00 -0.568015D-03 -0.315766D-02 -0.135103D-02  0.180771D-02
     14  0.000000D+00  0.157472D-03  0.941533D-03  0.374548D-03 -0.121926D-02
     15  0.000000D+00  0.355825D-03  0.176833D-02  0.846332D-03  0.114522D-02
     16  0.000000D+00  0.726566D-04 -0.889783D-04  0.172814D-03  0.114864D-03
     17  0.000000D+00 -0.890413D-04  0.109044D-03 -0.211786D-03 -0.140767D-03
     18  0.000000D+00  0.173014D-03 -0.211881D-03  0.411516D-03  0.273522D-03
     19  0.000000D+00  0.114940D-03 -0.140760D-03  0.273386D-03  0.181711D-03
     20  0.000000D+00  0.000000D+00  0.000000D+00  0.000000D+00  0.000000D+00
     21  0.000000D+00 -0.172970D-03  0.211826D-03 -0.411411D-03 -0.273452D-03
     22  0.000000D+00 -0.187610D-03  0.229755D-03 -0.446233D-03 -0.296596D-03
     23  0.000000D+00  0.890955D-04 -0.109110D-03  0.211915D-03  0.140853D-03
     24  0.000000D+00  0.000000D+00  0.000000D+00  0.000000D+00  0.000000D+00
               11            12            13            14            15 
     11  0.207584D+00
     12 -0.837130D-01  0.106449D+00
     13  0.209610D-02  0.114422D-02  0.566548D+00
     14 -0.143447D-02 -0.809905D-03 -0.126174D+00  0.360444D+00
     15  0.139359D-02  0.845914D-03 -0.398731D-01 -0.837205D-01  0.599876D+00
     16  0.000000D+00 -0.172814D-03 -0.319211D+00  0.409711D-02  0.988482D-01
     17  0.000000D+00  0.211785D-03 -0.184074D-01 -0.668374D-01  0.190435D-01
     18  0.000000D+00 -0.411515D-03  0.872723D-01  0.959295D-02 -0.120561D+00
     19  0.000000D+00 -0.273385D-03 -0.160644D+00  0.110871D+00 -0.477363D-01
     20  0.000000D+00  0.000000D+00  0.133362D+00 -0.225247D+00  0.886561D-01
     21  0.000000D+00  0.411410D-03 -0.477365D-01  0.737053D-01 -0.120552D+00
     22  0.000000D+00  0.446231D-03 -0.838799D-01  0.104244D-01 -0.114859D-01
     23  0.000000D+00 -0.211914D-03  0.104365D-01 -0.668248D-01 -0.244988D-01
     24  0.000000D+00  0.000000D+00  0.898039D-04 -0.973605D-04 -0.355743D+00
[...]
 Frequencies --   3303.2383              3303.5974              3303.6456
 Red. masses --      1.1185                 1.1186                 1.1186
 Frc consts  --      7.1907                 7.1926                 7.1928
 IR Inten    --   4.373                  4.463                  4.472    
  Atom  AN      X      Y      Z        X      Y      Z        X      Y      Z
     1   6    -0.07  -0.00   0.07     0.07   0.00   0.07    -0.00   0.00   0.00
     2   1    -0.01   0.00  -0.59     0.01   0.00  -0.56    -0.00  -0.00  -0.01
     3   1     0.68  -0.00  -0.39    -0.19   0.00   0.13     0.00   0.00  -0.00
     4   1     0.16   0.00   0.11    -0.68  -0.00  -0.39    -0.00  -0.00   0.00
     5   6    -0.00  -0.00  -0.00     0.00   0.00   0.00    -0.06   0.00   0.08
     6   1    -0.00  -0.00   0.00    -0.00  -0.00   0.00     0.66   0.00  -0.38
     7   1     0.00   0.00   0.00    -0.01  -0.00  -0.00     0.12   0.00   0.09
     8   1     0.00   0.00   0.01     0.00  -0.00  -0.00    -0.02  -0.01  -0.62

 -------------------
 - Thermochemistry -
 -------------------
 Temperature   298.150 Kelvin.  Pressure   1.00000 Atm.
 Atom     1 has atomic number  6 and mass  12.00000
 Atom     2 has atomic number  1 and mass   1.00783
 Atom     3 has atomic number  1 and mass   1.00783
 Atom     4 has atomic number  1 and mass   1.00783
 Atom     5 has atomic number  6 and mass  12.00000
 Atom     6 has atomic number  1 and mass   1.00783
 Atom     7 has atomic number  1 and mass   1.00783
 Atom     8 has atomic number  1 and mass   1.00783
 Molecular mass:    30.04695 amu.
 Principal axes and moments of inertia in atomic units:
                           1         2         3
     Eigenvalues --    25.105222694.992592694.99745
           X           -0.00768   0.18874   0.98200
           Y            0.99997   0.00234   0.00737
           Z           -0.00091   0.98202  -0.18875
 This molecule is an asymmetric top.
 Rotational symmetry number  1.
 Rotational temperatures (Kelvin)      3.45003     0.03214     0.03214
 Rotational constants (GHZ):          71.88710     0.66966     0.66966
    1 imaginary frequencies ignored.
 Zero-point vibrational energy     157952.9 (Joules/Mol)
                                   37.75165 (Kcal/Mol)
 Warning -- explicit consideration of   7 degrees of freedom as
           vibrations may cause significant error
 Vibrational temperatures:      0.49    57.98    64.08   119.81   124.32
          (Kelvin)            758.34   759.98  2028.15  2028.21  2028.72
                             2028.82  4492.12  4492.14  4752.56  4752.62
                             4753.13  4753.20
 
 Zero-point correction=                           0.060161 (Hartree/Particle)
 Thermal correction to Energy=                    0.067604
 Thermal correction to Enthalpy=                  0.068549
 Thermal correction to Gibbs Free Energy=         0.021588
 Sum of electronic and zero-point Energies=            -79.618189
 Sum of electronic and thermal Energies=               -79.610745
 Sum of electronic and thermal Enthalpies=             -79.609801
 Sum of electronic and thermal Free Energies=          -79.656762
 
                     E (Thermal)             CV                S
                      KCal/Mol        Cal/Mol-Kelvin    Cal/Mol-Kelvin
 Total                   42.422             18.616             98.838
 Electronic               0.000              0.000              2.183
 Translational            0.889              2.981             36.134
 Rotational               0.889              2.981             26.703
 Vibrational             40.645             12.654             33.818
 Vibration     1          0.592              1.987             14.721
 Vibration     2          0.594              1.981              5.244
 Vibration     3          0.595              1.980              5.046
 Vibration     4          0.600              1.961              3.812
 Vibration     5          0.601              1.959              3.740
 Vibration     6          0.882              1.190              0.594
 Vibration     7          0.883              1.188              0.591
                       Q            Log10(Q)             Ln(Q)
 Total Bot       0.117605D-09         -9.929575        -22.863693
 Total V=0       0.552772D+18         17.742546         40.853722
 Vib (Bot)       0.396151D-22        -22.402139        -51.582831
 Vib (Bot)    1  0.606702D+03          2.782976          6.408038
 Vib (Bot)    2  0.513423D+01          0.710475          1.635930
 Vib (Bot)    3  0.464405D+01          0.666897          1.535588
 Vib (Bot)    4  0.247178D+01          0.393010          0.904939
 Vib (Bot)    5  0.238089D+01          0.376740          0.867476
 Vib (Bot)    6  0.304253D+00         -0.516766         -1.189897
 Vib (Bot)    7  0.303275D+00         -0.518164         -1.193117
 Vib (V=0)       0.186201D+06          5.269982         12.134583
 Vib (V=0)    1  0.607202D+03          2.783334          6.408862
 Vib (V=0)    2  0.565852D+01          0.752703          1.733162
 Vib (V=0)    3  0.517089D+01          0.713565          1.643045
 Vib (V=0)    4  0.302185D+01          0.480272          1.105868
 Vib (V=0)    5  0.293283D+01          0.467287          1.075968
 Vib (V=0)    6  0.108529D+01          0.035548          0.081851
 Vib (V=0)    7  0.108479D+01          0.035344          0.081383
 Electronic      0.300000D+01          0.477121          1.098612
 Translational   0.647375D+07          6.811156         15.683266
 Rotational      0.152857D+06          5.184286         11.937261
 -------------------------------------------------------------------
 Center     Atomic                   Forces (Hartrees/Bohr)
 Number     Number              X              Y              Z
 -------------------------------------------------------------------
      1        6           0.000066311    0.000008110   -0.000017380
      2        1          -0.000037105   -0.000002565    0.000020603
      3        1          -0.000025544   -0.000002594   -0.000014592
      4        1          -0.000003668   -0.000002592    0.000011379
      5        6           0.000050644    0.000002858    0.000057711
      6        1          -0.000039196   -0.000002059   -0.000026344
      7        1           0.000001904    0.000000554   -0.000033684
      8        1          -0.000013346   -0.000001712    0.000002307
 -------------------------------------------------------------------
 Cartesian Forces:  Max     0.000066311 RMS     0.000026660
 -----------------------------------------------------------------------------------------------
                       Internal Coordinate Forces (Hartree/Bohr or radian)
  Cent   Atom   N1       Length/X         N2         Alpha/Y        N3         Beta/Z          J
 -----------------------------------------------------------------------------------------------
      1  C 
      2  H        1   0.000021(     1)
      3  H        1  -0.000015(     2)      2   0.000052(     8)
      4  H        1  -0.000003(     3)      2  -0.000024(     9)      3  -0.000005(    14)     0
      5  C        1   0.000000(     4)      2  -0.000003(    10)      3  -0.000004(    15)     0
      6  H        5   0.000020(     5)      1   0.000002(    11)      2  -0.000002(    16)     0
      7  H        5  -0.000015(     6)      6   0.000062(    12)      1  -0.000004(    17)     0
      8  H        5  -0.000002(     7)      6  -0.000027(    13)      7  -0.000003(    18)     0
 -----------------------------------------------------------------------------------------------
 Internal  Forces:  Max     0.000061618 RMS     0.000022561

 GradGradGradGradGradGradGradGradGradGradGradGradGradGradGradGradGradGrad
 Berny optimization.
 Search for a local minimum.
 Step number   1 out of a maximum of    2
 All quantities printed in internal units (Hartrees-Bohrs-Radians)
 Second derivative matrix not updated -- analytic derivatives used.
 The second derivative matrix:
                          R1        R2        R3        A2        A3
           R1           0.37170
           R2           0.00004   0.37168
           R3           0.00003   0.00004   0.37176
           A2           0.01583   0.00009  -0.01586   0.18906
           A3           0.01582  -0.01587   0.00008   0.09454   0.18898
           D3           0.00000   0.00001   0.00000  -0.00003  -0.00004
           R21          0.00000  -0.00000   0.00000  -0.00000   0.00000
           R22          0.00000   0.00000  -0.00000   0.00000  -0.00000
           R23         -0.00000   0.00000   0.00000  -0.00000  -0.00000
           A22          0.00000  -0.00000  -0.00000  -0.00000  -0.00000
           A23          0.00000  -0.00000   0.00000   0.00000  -0.00000
           D23         -0.00000  -0.00000  -0.00000   0.00000   0.00000
           ANG2        -0.00000   0.00000   0.00000  -0.00000   0.00001
           DH3         -0.00000   0.00000   0.00000   0.00001   0.00000
           DH2          0.00000  -0.00000   0.00000   0.00000  -0.00000
           DH1         -0.00000  -0.00000   0.00000   0.00000  -0.00000
           ANG1        -0.00001   0.00000   0.00000   0.00000   0.00000
           BB          -0.00000  -0.00000  -0.00000   0.00000   0.00000
                          D3        R21       R22       R23       A22
           D3           0.00891
           R21          0.00000   0.37181
           R22          0.00000   0.00005   0.37166
           R23          0.00000   0.00003   0.00003   0.37168
           A22          0.00000   0.01587  -0.00006  -0.01582   0.18901
           A23          0.00000   0.01576  -0.01576   0.00001   0.09450
           D23         -0.00002  -0.00000  -0.00002  -0.00003   0.00007
           ANG2         0.00000   0.00002   0.00004   0.00001  -0.00006
           DH3         -0.00000   0.00000  -0.00005  -0.00003   0.00007
           DH2          0.00000  -0.00018   0.00018  -0.00000   0.00010
           DH1          0.00001  -0.00002  -0.00006  -0.00002   0.00009
           ANG1         0.00000   0.00001  -0.00002  -0.00003   0.00003
           BB          -0.00000  -0.00000  -0.00000  -0.00000  -0.00000
                          A23       D23      ANG2       DH3       DH2
           A23          0.18896
           D23          0.00008   0.00963
           ANG2        -0.00001   0.00058   0.00072
           DH3          0.00004   0.00107   0.00051   0.00145
           DH2         -0.00001   0.00001  -0.00001  -0.00000  -0.00007
           DH1          0.00002   0.00004  -0.00038   0.00031   0.00001
           ANG1         0.00003   0.00123   0.00082   0.00153  -0.00000
           BB          -0.00000   0.00000  -0.00000  -0.00000  -0.00000
                          DH1      ANG1       BB
           DH1          0.00047
           ANG1         0.00007   0.00171
           BB          -0.00000   0.00000   0.00000
 ITU=  0
     Eigenvalues ---   -0.00007  -0.00002  -0.00002   0.00094   0.00300
     Eigenvalues ---    0.00891   0.01008   0.09357   0.09359   0.27567
     Eigenvalues ---    0.27574   0.37179   0.37179   0.37253   0.37260
     Eigenvalues ---    0.37949   0.379531000.00000
 Eigenvalue     1 is  -6.81D-05 should be greater than     0.000000 Eigenvector:
                          DH2      ANG2      ANG1       DH3       DH1
   1                    0.99727   0.05523  -0.04024   0.02065   0.01898
                          D23       A22       R21       R22       A23
   1                   -0.00176  -0.00073   0.00051  -0.00047   0.00034
 Eigenvalue     2 is  -2.25D-05 should be greater than     0.000000 Eigenvector:
                         ANG2      ANG1       DH1       DH3       DH2
   1                    0.61949  -0.60466   0.36423   0.33567  -0.07259
                          D23       A22       D3        R22       R21
   1                    0.00102   0.00007  -0.00003   0.00003  -0.00003
 Eigenvalue     3 is  -2.09D-05 should be greater than     0.000000 Eigenvector:
                          DH3       DH1      ANG1      ANG2       DH2
   1                    0.62163  -0.60625  -0.36477  -0.33612   0.00256
                          D3        D23       A2        A23       A3
   1                    0.00099   0.00043  -0.00002  -0.00002   0.00001
 Angle between quadratic step and forces=  86.49 degrees.
 Linear search not attempted -- first point.
 Variable       Old X    -DE/DX   Delta X   Delta X   Delta X     New X
                                 (Linear)    (Quad)   (Total)
    R1        2.03756   0.00002   0.00000   0.00005   0.00005   2.03761
    R2        2.03768  -0.00001   0.00000  -0.00006  -0.00006   2.03763
    R3        2.03761  -0.00000   0.00000   0.00001   0.00001   2.03763
    A2        2.09402   0.00005   0.00000   0.00045   0.00045   2.09447
    A3        2.09483  -0.00002   0.00000  -0.00036  -0.00036   2.09447
    D3        3.14119  -0.00000   0.00000  -0.00051  -0.00051   3.14068
   R21        2.03758   0.00002   0.00000   0.00003   0.00003   2.03761
   R22        2.03768  -0.00001   0.00000  -0.00005  -0.00005   2.03764
   R23        2.03759  -0.00000   0.00000   0.00002   0.00002   2.03761
   A22        2.09373   0.00006   0.00000   0.00056   0.00056   2.09429
   A23        2.09488  -0.00003   0.00000  -0.00043  -0.00043   2.09444
   D23        3.14263  -0.00000   0.00000  -0.00006  -0.00006   3.14257
   ANG2       1.56916   0.00000   0.00000   0.00240   0.00240   1.57156
   DH3        1.56006  -0.00000   0.00000  -0.00410  -0.00410   1.55595
   DH2        1.03865  -0.00000   0.00000  -0.03039  -0.03039   1.00826
   DH1        1.56312  -0.00000   0.00000  -0.00356  -0.00356   1.55956
   ANG1       1.56987  -0.00000   0.00000   0.00102   0.00102   1.57089
    BB       18.89726   0.00000   0.00000   0.00000   0.00000  18.89726
         Item               Value     Threshold  Converged?
 Maximum Force            0.000062     0.000450     YES
 RMS     Force            0.000023     0.000300     YES
 Maximum Displacement     0.030394     0.001800     NO 
 RMS     Displacement     0.007308     0.001200     NO 
 Predicted change in Energy=-1.537392D-07
 GradGradGradGradGradGradGradGradGradGradGradGradGradGradGradGradGradGrad


 Test job not archived.
 1\1\GINC-NODE-6-10\Freq\UwB97XD\Aug-CC-pVTZ\C2H6(3)\CAVALLOTTI\27-May-
 2023\1\\#N Geom=AllCheck Guess=TCheck SCRF=Check Test GenChk UwB97XD/A
 ug-CC-pVTZ Freq\\geom 0\\0,3\C\H,1,R1\H,1,R2,2,A2\H,1,R3,2,A3,3,D3,0\C
 ,1,BB,2,ANG1,3,DH1,0\H,5,R21,1,ANG2,2,DH2,0\H,5,R22,6,A22,1,DH3,0\H,5,
 R23,6,A23,7,D23,0\\R1=1.07822808\R2=1.0782951\R3=1.07825929\A2=119.978
 23269\A3=120.02471139\D3=179.97692813\R21=1.07823864\R22=1.07829618\R2
 3=1.07824696\A22=119.96215331\A23=120.02751982\D23=180.05950841\ANG2=8
 9.90617062\DH3=89.38465556\DH2=59.51029102\DH1=89.56018648\ANG1=89.947
 04485\BB=10.\\Version=EM64L-G09RevD.01\HF=-79.6783496\S2=2.007931\S2-1
 =0.\S2A=2.000036\RMSD=2.142e-09\RMSF=2.666e-05\ZeroPoint=0.0601611\The
 rmal=0.0676043\Dipole=0.0000335,0.0001669,0.0000422\DipoleDeriv=0.0182
 35,0.0000921,-0.0000618,0.0001162,-0.4465266,0.0000588,-0.0000634,0.00
 00552,0.0186439,0.0441481,-0.0000242,-0.0000239,-0.0000294,0.1496275,0
 .0001814,0.0000674,0.0000944,-0.0564073,-0.0312982,0.0000735,0.0431019
 ,0.0001381,0.1484312,-0.0001099,0.0428946,-0.0000677,0.0188682,-0.0310
 849,-0.0001402,-0.0430162,-0.0002237,0.1484678,-0.0001293,-0.0428986,-
 0.0000808,0.0188952,0.0182225,0.0054125,-0.0000162,0.005336,-0.4463835
 ,0.0048538,-0.0000122,0.0048524,0.0185359,-0.0304791,-0.0014725,0.0434
 085,-0.0013977,0.1483116,-0.0009408,0.0433782,-0.0009002,0.0181254,-0.
 0319402,-0.0026653,-0.0426365,-0.0026869,0.1484663,-0.0020599,-0.04255
 5,-0.0019544,0.0195807,0.0441967,-0.0012759,-0.0007558,-0.0012526,0.14
 96057,-0.0018541,-0.000811,-0.0019989,-0.056242\Polar=32.0380318,-0.00
 61753,32.9464366,0.000538,-0.003768,32.027424\PG=C01 [X(C2H6)]\NImag=1
 \\0.61958461,0.00011985,0.02544036,0.00016475,0.00007004,0.61965465,-0
 .05488744,-0.00000916,-0.00000157,0.04551985,-0.00000934,-0.00860045,0
 .00001013,0.00000857,0.00308424,0.00001097,-0.00000480,-0.35820991,-0.
 00002445,0.00000135,0.37169798,-0.28241708,-0.00000908,0.13131163,0.00
 467588,0.00000028,-0.00384828,0.29020693,0.00000430,-0.00843527,-0.000
 01321,-0.00000088,0.00276717,0.00000091,0.00000542,0.00287516,0.131334
 97,-0.00000573,-0.13060931,0.02359671,-0.00000122,-0.00675133,-0.14118
 948,0.00000676,0.12701739,-0.28228003,-0.00010163,-0.13147481,0.004691
 85,0.00000050,0.00386177,-0.01246591,-0.00000917,-0.01374201,0.2900539
 1,-0.00011481,-0.00840176,-0.00006696,0.00000147,0.00274809,0.00000223
 ,0.00000310,0.00279198,0.00000035,0.00011057,0.00286074,-0.13151069,-0
 .00005948,-0.13083537,-0.02357069,-0.00001065,-0.00673704,0.01372633,0
 .00000572,0.01034330,0.14135486,0.00006456,0.12722915,-0.00000118,0.00
 000068,-0.00000002,0.00000101,-0.00000022,-0.00000005,0.00000003,-0.00
 000019,0.00000059,0.00000007,-0.00000023,-0.00000051,0.61936632,-0.000
 00004,-0.00005919,0.00000002,-0.00000001,0.00001887,0.00000360,0.00000
 325,0.00001879,-0.00000185,-0.00000315,0.00001864,-0.00000178,0.006969
 14,0.02560079,0.00000002,0.00000062,-0.00000123,-0.00000001,-0.0000001
 5,-0.00000023,0.00000048,-0.00000023,0.00000070,-0.00000049,-0.0000002
 1,0.00000070,-0.00019003,0.00621126,0.61973371,0.00000019,0.00000261,0
 .00000033,-0.00000036,-0.00000139,-0.00000056,0.00000008,-0.00000011,-
 0.00000029,0.00000026,-0.00000084,0.00000032,-0.28015265,-0.00173691,0
 .13269570,0.28779160,0.00000208,0.00001878,-0.00000131,-0.00000109,-0.
 00000641,-0.00000100,-0.00000114,-0.00000512,0.00000063,0.00000046,-0.
 00000630,0.00000148,-0.00169632,-0.00842868,0.00020869,0.00176935,0.00
 286850,0.00000022,-0.00000180,0.00000051,0.00000002,0.00000036,0.00000
 016,-0.00000025,0.00000015,-0.00000022,-0.00000017,0.00000112,-0.00000
 049,0.13274069,0.00022297,-0.13298927,-0.14266213,-0.00031415,0.129542
 87,0.00000025,-0.00000306,-0.00000028,-0.00000041,0.00000154,0.0000005
 8,0.00000028,0.00000102,-0.00000038,0.00000007,0.00000022,0.00000028,-
 0.28430927,-0.00467487,-0.13009635,-0.01248665,-0.00033203,-0.01355321
 ,0.29226789,-0.00000208,0.00001871,-0.00000132,0.00000112,-0.00000635,
 -0.00000098,-0.00000048,-0.00000634,0.00000151,0.00000111,-0.00000507,
 0.00000061,-0.00470581,-0.00853266,-0.00286468,-0.00001736,0.00280589,
 -0.00007041,0.00494945,0.00297939,-0.00000026,-0.00000176,0.00000051,0
 .,0.00000033,0.00000014,0.00000018,0.00000112,-0.00000047,0.00000025,0
 .00000015,-0.00000023,-0.13014277,-0.00284996,-0.12859972,0.01392208,0
 .00024234,0.01034304,0.13988523,0.00299153,0.12483212,0.00000067,-0.00
 000020,-0.00000002,-0.00000038,0.00000007,0.00000003,-0.00000021,-0.00
 000039,-0.00000011,-0.00000022,0.00000052,0.00000010,-0.05490433,-0.00
 055739,-0.00240933,0.00484753,0.00025868,0.02347484,0.00452784,-0.0002
 2594,-0.02366473,0.04552911,0.00000004,0.00001881,0.00000261,-0.000000
 01,-0.00000515,-0.00000131,-0.00000136,-0.00000637,-0.00000046,0.00000
 131,-0.00000634,-0.00000046,-0.00056705,-0.00863655,-0.00355530,-0.000
 01535,0.00275332,0.00016176,0.00005775,0.00274643,-0.00038373,0.000524
 66,0.00313584,0.00000002,0.00000291,0.00000015,-0.00000001,-0.00000015
 ,0.00000022,-0.00000060,-0.00000123,-0.00000005,0.00000060,-0.00000123
 ,-0.00000003,-0.00240789,-0.00358425,-0.35814465,-0.00395546,-0.000136
 69,-0.00689659,0.00376413,-0.00005625,-0.00657538,0.00259922,0.0037768
 9,0.37161634\\-0.00006631,-0.00000811,0.00001738,0.00003711,0.00000256
 ,-0.00002060,0.00002554,0.00000259,0.00001459,0.00000367,0.00000259,-0
 .00001138,-0.00005064,-0.00000286,-0.00005771,0.00003920,0.00000206,0.
 00002634,-0.00000190,-0.00000055,0.00003368,0.00001335,0.00000171,-0.0
 0000231\\\@


 OLD AGE AND TREACHERY WILL ALWAYS PREVAIL OVER YOUTH AND SKILL.
 Job cpu time:       0 days  0 hours 21 minutes  3.6 seconds.
 File lengths (MBytes):  RWF=    106 Int=      0 D2E=      0 Chk=      7 Scr=      1
 Normal termination of Gaussian 09 at Sat May 27 09:15:04 2023.
