
 Working directory              : /scratch/cc//molpro.8S7IkNiPoZ/
 Global scratch directory       : /scratch/cc//molpro.8S7IkNiPoZ/
 Wavefunction directory         : /home/chimica2/cavallotti/wfu/
 Main file repository           : /scratch/cc//molpro.8S7IkNiPoZ/

 id        : polimi

 Nodes     nprocs
 node-6-11    1
 Distribution of processes:   nprocs(total)=    2   nprocs(compute)=    1   nprocs(helper)=    1
 GA implementation: MPI file
 GA implementation (serial work in mppx): MPI file

 Using customized tuning parameters: mindgm=1; mindgv=20; mindgc=4; mindgr=1; noblas=0; minvec=7
 default implementation of scratch files=df  


 Variables initialized (1009), CPU time= 0.00 sec
  memory,         400 ,m
 
 symmetry, nosym; orient, noorient
 angstrom
 geomtyp=xyz
 geometry={
 5
 rotational dynamics
 C, -0.0377265, -0.0562178, 0.141269
 H, -1.05911, -0.370123, -0.00280463
 H, 0.737791, -0.792549, 0.278775
 H, 0.208629, 0.993457, 0.144759
 H, 0.561893, 0.83859, -2.10279
 }
 
  basis=cc-pvdz
  {multi;closed, 4;occ, 6;wf, 10,1,0,;state,1;maxiter,40}
  if (iterations.ge.0) then
     {rs2,shift=0.2;orbital,IGNORE_ERROR;state,1}
     molpro_energy = energy +   40.192865169999997
  else
     molpro_energy = 10.0
  endif
 Commands initialized (810), CPU time= 0.01 sec, 661 directives.
 Default parameters read. Elapsed time= 0.13 sec

 Checking input...
 Passed
1


                                         ***  PROGRAM SYSTEM MOLPRO  ***
                                       Copyright, TTI GmbH Stuttgart, 2015
                                    Version 2021.2 linked Jun  2 2021 16:00:59


 **********************************************************************************************************************************
 LABEL *                                                                                 
  64 bit serial version                                                                  DATE: 03-Jun-23          TIME: 09:12:07  
 **********************************************************************************************************************************

 SHA1:             1987c3f1b0c3ae76932bc24993909f2d7ae6b1f1
 **********************************************************************************************************************************

 Memory per process:       400 MW
 Total memory per node:    400 MW

 GA preallocation disabled
 GA check disabled

 Variable memory set to 400.0 MW

 SETTING GEOMTYP        =    XYZ
 ZSYMEL=NOSYM
 ZUNIT=ANG

 SETTING BASIS          =    CC-PVDZ


 Recomputing integrals since basis changed


 Using spherical harmonics

 Library entry C      S cc-pVDZ              selected for orbital group  1
 Library entry C      P cc-pVDZ              selected for orbital group  1
 Library entry C      D cc-pVDZ              selected for orbital group  1
 Library entry H      S cc-pVDZ              selected for orbital group  2
 Library entry H      P cc-pVDZ              selected for orbital group  2


 PROGRAM * SEWARD (Integral evaluation for generally contracted gaussian basis sets)     Author: Roland Lindh, 1990

 Geometry written to block  1 of record 700


 Point group  C1  



 ATOMIC COORDINATES

 NR  ATOM    CHARGE       X              Y              Z

   1  C       6.00   -0.071292753   -0.106236245    0.266959720
   2  H       1.00   -2.001427836   -0.699431102   -0.005299983
   3  H       1.00    1.394222927   -1.497700550    0.526808400
   4  H       1.00    0.394251672    1.877361647    0.273554864
   5  H       1.00    1.061823881    1.584705431   -3.973697198

 Bond lengths in Bohr (Angstrom)

 1-2  2.037505073  1-3  2.037505940  1-4  2.037507228
     ( 1.078201252)     ( 1.078201711)     ( 1.078202392)

 Bond angles

  2-1-3  119.97236569   2-1-4  120.02077752   3-1-4  120.00657769

 NUCLEAR CHARGE:                   10
 NUMBER OF PRIMITIVE AOS:          55
 NUMBER OF SYMMETRY AOS:           54
 NUMBER OF CONTRACTIONS:           34   (   34A   )
 NUMBER OF INNER CORE ORBITALS:     0   (    0A   )
 NUMBER OF OUTER CORE ORBITALS:     1   (    1A   )
 NUMBER OF VALENCE ORBITALS:        8   (    8A   )


 NUCLEAR REPULSION ENERGY   11.55651648

 Eigenvalues of metric

         1 0.149E-01 0.348E-01 0.352E-01 0.418E-01 0.539E-01 0.541E-01 0.794E-01 0.121E+00


 Contracted 2-electron integrals neglected if value below      1.0D-11
 AO integral compression algorithm  1   Integral accuracy      1.0D-11

     1.049 MB (compressed) written to integral file ( 74.1%)


 NUMBER OF SORTED TWO-ELECTRON INTEGRALS:     177310.     BUFFER LENGTH:  32768
 NUMBER OF SEGMENTS:   1  SEGMENT LENGTH:     177310      RECORD LENGTH: 524288

 Memory used in sort:       0.73 MW

 SORT1 READ      219389. AND WROTE      172171. INTEGRALS IN      1 RECORDS. CPU TIME:     0.00 SEC, REAL TIME:     0.01 SEC
 SORT2 READ      172171. AND WROTE      177310. INTEGRALS IN      4 RECORDS. CPU TIME:     0.02 SEC, REAL TIME:     0.02 SEC

 FILE SIZES:   FILE 1:    31.1 MBYTE,  FILE 4:     4.2 MBYTE,   TOTAL:     35.3 MBYTE

 OPERATOR DM      FOR CENTER  0  COORDINATES:    0.000000    0.000000    0.000000


 **********************************************************************************************************************************
 DATASETS  * FILE   NREC   LENGTH (MB)   RECORD NAMES
              1      19       29.47       500      610      700      900      950      970     1000      129      960     1100   
                                          VAR    BASINP    GEOM    SYMINP    ZMAT    AOBASIS   BASIS     P2S    ABASIS      S 
                                         1400     1410     1200     1210     1080     1600     1650     1300     1700   
                                           T        V       H0       H01     AOSYM     SMH    MOLCAS    ERIS     OPER   

 PROGRAMS   *        TOTAL       INT
 CPU TIMES  *         0.38      0.23
 REAL TIME  *         0.77 SEC
 DISK USED  *        34.01 MB
 **********************************************************************************************************************************

 PROGRAM * MULTI (Direct Multiconfiguration SCF)       Authors: P.J. Knowles, H.-J. Werner (1984)
                                                                D.A. Kreplin, P.J. Knowles, H.-J. Werner (2019)

 Number of closed-shell orbitals:   4 (   4 )
 Number of active  orbitals:        2 (   2 )
 Number of external orbitals:      28 (  28 )

 State symmetry 1

 Number of active electrons:   2    Spin symmetry=Singlet   Space symmetry=1
 Number of states:             1
 Number of CSFs:               3   (4 determinants, 4 intermediate states)

 Orbital guess generated from atomic densities. Full valence occupancy:    9

 Wavefunction dump at record             2140.2

 Convergence thresholds  0.10E-04 (gradient)  0.10E-05 (energy)
 
 Number of orbital rotations:  176  ( 8 closed/active, 112 closed/virtual, 0 active/active, 56 active/virtual )
 Total number of variables:    180
 
  Second-order MCSCF: L-BFGS accelerated
 
 ITER  MIC  NCI  NEG     ENERGY(VAR)    ENERGY(PROJ) ENERGY CHANGE       GRAD(0)  GRAD(ORB)   GRAD(CI)      STEP      TIME
   1    6    5    0    -40.05416042     -40.07077350   -0.01661308    0.14079822 0.00013621 0.00000000  0.16E+00      0.08
   2    9    8    0    -40.07064191     -40.07064861   -0.00000670    0.00258271 0.00000004 0.00000000  0.34E-02      0.19
   3    5    5    0    -40.07064861     -40.07064861   -0.00000000    0.00000218 0.00000000 0.00000000  0.52E-05      0.26

 CONVERGENCE REACHED!  Final gradient:    0.00000000 ( 0.55E-11)
                       Final energy:    -40.07064861
 
 First order charge density matrix for state 1.1 saved on record 2140.2 (density set 1)
 
 Results for state 1.1
 =====================
 !MCSCF STATE 1.1 Energy                       -40.070648613861
 Nuclear energy                                 11.55651648
 Kinetic energy                                 39.93058376
 One electron energy                           -75.77110505
 Two electron energy                            24.14393996
 Virial ratio                                    2.00350771
 
 !MCSCF STATE 1.1 Dipole moment                 -0.04189575    -0.04848622     0.18009529
 Dipole moment /Debye                           -0.10648837    -0.12323967     0.45775657
 
 No non-zero expectation values
 
 
 Natural orbital dump at molpro section 2140.2 (Orbital set 2)


 **********************************************************************************************************************************
 DATASETS  * FILE   NREC   LENGTH (MB)   RECORD NAMES
              1      20       29.77       500      610      700      900      950      970     1000      129      960     1100   
                                          VAR    BASINP    GEOM    SYMINP    ZMAT    AOBASIS   BASIS     P2S    ABASIS      S 
                                         1400     1410     1200     1210     1080     1600     1650     1300     1700     1380   
                                           T        V       H0       H01     AOSYM     SMH    MOLCAS    ERIS     OPER     JKOP   

              2       4        2.72       700     1000      520     2140   
                                         GEOM     BASIS   MCVARS    MCSCF   

 PROGRAMS   *        TOTAL     MULTI       INT
 CPU TIMES  *         0.61      0.23      0.23
 REAL TIME  *         1.13 SEC
 DISK USED  *        34.01 MB
 **********************************************************************************************************************************


 PROGRAM * RS2 (Multireference RS Perturbation Theory)     Authors: H.-J. Werner (1993), P. Celani (1998)


 Level shift= 0.20

 Convergence thresholds:  THRVAR = 1.00D-08  THRDEN = 1.00D-06

 Number of optimized states: 1  Roots:    1
 Number of reference states: 1  Roots:    1

 Reference symmetry:                   1   Singlet 
 Number of electrons:                 10
 Maximum number of shells:             4
 Maximum number of spin couplings:     5

 Reference space:        3 conf        3 CSFs
 N elec internal:       15 conf       15 CSFs
 N-1 el internal:       23 conf       32 CSFs
 N-2 el internal:       25 conf       52 CSFs

 Number of electrons in valence space:                      8
 Maximum number of open shell orbitals in reference space:  2
 Maximum number of open shell orbitals in internal spaces:  6


 Number of core orbitals:           1 (   1 )
 Number of closed-shell orbitals:   3 (   3 )
 Number of active  orbitals:        2 (   2 )
 Number of external orbitals:      28 (  28 )

 Molecular orbitals read from record     2140.2  Type=MCSCF/NATURAL (state 1.1)

 Integral transformation finished. Total CPU:   0.00 sec, npass=  1  Memory used:   0.11 MW


 Number of p-space configurations:   3

 Reference wavefunction optimized for reference space (refopt=1)

 State     Reference Energy 
     1       -40.07064861

 Number of blocks in overlap matrix:     2   Smallest eigenvalue:  0.10D+01
 Number of N-2 electron functions:      22
 Number of N-1 electron functions:      32

 Number of internal configurations:                   15
 Number of singly external configurations:           896
 Number of doubly external configurations:          8680
 Total number of contracted configurations:         9591
 Total number of uncontracted configurations:      21351

 Weight factors for SA-density in H0:    1.000000

 FIMAX=  0.28D-01  FXMAX=  0.57D-13  DIAG=  F  T  NOREF=1  NOINT=0  IHPPD=2

 Nuclear energy:                      11.55651648
 Core energy:                        -35.72855465
 Zeroth-order valence energy:         -4.51517964
 Zeroth-order total energy:          -28.68721780
 First-order energy:                 -11.38343081

 Using uncontracted singles

 Diagonal Coupling coefficients finished.               Storage:     883 words, CPU-Time:      0.00 seconds.
 Energy denominators for pairs finished in 0 passes.    Storage:    2295 words, CPU-time:      0.00 seconds.

 A level shift of 0.20 is applied.

  ITER. STATE  ROOT     SQ.NORM     CORR.ENERGY   TOTAL ENERGY   ENERGY CHANGE       DEN1      VAR(S)    VAR(P)      TIME
    1     1     1     1.00697207    -0.00139441   -40.07204303    -0.00139441    -0.12735932  0.70D-02  0.35D-01     0.02
    2     1     1     1.04239560    -0.13607295   -40.20672156    -0.13467854    -0.00005551  0.23D-04  0.16D-04     0.02
    3     1     1     1.04244543    -0.13615331   -40.20680192    -0.00008036    -0.00004864  0.24D-06  0.48D-07     0.02
    4     1     1     1.04246466    -0.13615760   -40.20680622    -0.00000430    -0.00000132  0.17D-08  0.11D-08     0.03
    5     1     1     1.04246534    -0.13615774   -40.20680635    -0.00000014    -0.00000034  0.30D-10  0.65D-11     0.03
    6     1     1     1.04246547    -0.13615777   -40.20680638    -0.00000003    -0.00000002  0.32D-12  0.15D-12     0.03

 Energies without level shift correction:

    6     1     1     1.04246547    -0.12766467   -40.19831329

 Energy contributions for state 1.1:
 ===================================

            Energy contr.      SQ.Norm of FOWF
 Space I     -0.00026156          0.00015910
 Space S     -0.01449932          0.00713587
 Space P     -0.11290379          0.03517050


 =====================================
 Analysis of CPU times by interactions
 =====================================

       I      S      P

 I   0.0%
 S   0.0%   0.0%
 P   0.0%  33.3%   0.0%

 Initialization:  66.7%
 Other:            0.0%

 Total CPU:        0.0 seconds
 =====================================



 gnormi=  1.00015910  gnorms=  0.00713587  gnormp=  0.03517050  gnorm=  1.04246547
 ecorri= -0.00026156  ecorrs= -0.01449932  ecorrp= -0.11290379  ecorr= -0.13615777

 Reference coefficients greater than 0.0500000
 =============================================
 22220           0.8683630
 22202          -0.4959291


 RESULTS FOR STATE 1.1
 =====================

 Coefficient of reference function:   C(0) = 1.00000000 (fixed)   1.00000000 (relaxed)

 Energy contributions of configuration classes

 CLASS          SQ.NORM        ECORR1        ECORR2
 +++++++++++++++++++++++++++++++++++++++++++++++++++
 Internals    0.00015910   -0.00026156    0.13559983
 Singles      0.00713587   -0.01449932   -0.03092782
 Pairs        0.03517050   -0.11290378   -0.24082978
 Total        1.04246547   -0.12766467   -0.13615777
 +++++++++++++++++++++++++++++++++++++++++++++++++++


 Reference energy                     -40.07064861
 Nuclear energy                        11.55651648
 Kinetic energy                        40.02968016
 One electron energy                  -75.71550554
 Two electron energy                   23.95218268
 Virial quotient                       -1.00442487
 Correlation energy                    -0.13615777
 !RSPT2 STATE 1.1 Energy              -40.206806379846

 Properties without orbital relaxation:

 !RSPT2 STATE 1.1 Dipole moment        -0.04241481    -0.04851083     0.18335915
 Dipole moment /Debye                  -0.10780770    -0.12330223     0.46605247


 **********************************************************************************************************************************
 DATASETS  * FILE   NREC   LENGTH (MB)   RECORD NAMES
              1      20       29.77       500      610      700      900      950      970     1000      129      960     1100   
                                          VAR    BASINP    GEOM    SYMINP    ZMAT    AOBASIS   BASIS     P2S    ABASIS      S 
                                         1400     1410     1200     1210     1080     1600     1650     1300     1700     1380   
                                           T        V       H0       H01     AOSYM     SMH    MOLCAS    ERIS     OPER     JKOP   

              2       4        2.72       700     1000      520     2140   
                                         GEOM     BASIS   MCVARS    MCSCF   

 PROGRAMS   *        TOTAL       RS2     MULTI       INT
 CPU TIMES  *         0.68      0.07      0.23      0.23
 REAL TIME  *         1.28 SEC
 DISK USED  *        34.01 MB
 **********************************************************************************************************************************
 SETTING MOLPRO_ENERGY  =        -0.01394121  AU                              

 RS2/cc-pVDZ energy=    -40.206806379846

             RS2           MULTI
    -40.20680638    -40.07064861
 **********************************************************************************************************************************
 Molpro calculation terminated
