 Entering Gaussian System, Link 0=g09
 Input=geom.com
 Output=geom.log
 Initial command:
 /software/cinetica/g09d1/g09d01/d01/build-node-6-2-59348/src/main/l1.exe "/scratch/cc/140716/Gau-174968.inp" -scrdir="/scratch/cc/140716/"
 Entering Link 1 = /software/cinetica/g09d1/g09d01/d01/build-node-6-2-59348/src/main/l1.exe PID=    174969.
  
 Copyright (c) 1988,1990,1992,1993,1995,1998,2003,2009,2013,
            Gaussian, Inc.  All Rights Reserved.
  
 This is part of the Gaussian(R) 09 program.  It is based on
 the Gaussian(R) 03 system (copyright 2003, Gaussian, Inc.),
 the Gaussian(R) 98 system (copyright 1998, Gaussian, Inc.),
 the Gaussian(R) 94 system (copyright 1995, Gaussian, Inc.),
 the Gaussian 92(TM) system (copyright 1992, Gaussian, Inc.),
 the Gaussian 90(TM) system (copyright 1990, Gaussian, Inc.),
 the Gaussian 88(TM) system (copyright 1988, Gaussian, Inc.),
 the Gaussian 86(TM) system (copyright 1986, Carnegie Mellon
 University), and the Gaussian 82(TM) system (copyright 1983,
 Carnegie Mellon University). Gaussian is a federally registered
 trademark of Gaussian, Inc.
  
 This software contains proprietary and confidential information,
 including trade secrets, belonging to Gaussian, Inc.
  
 This software is provided under written license and may be
 used, copied, transmitted, or stored only in accord with that
 written license.
  
 The following legend is applicable only to US Government
 contracts under FAR:
  
                    RESTRICTED RIGHTS LEGEND
  
 Use, reproduction and disclosure by the US Government is
 subject to restrictions as set forth in subparagraphs (a)
 and (c) of the Commercial Computer Software - Restricted
 Rights clause in FAR 52.227-19.
  
 Gaussian, Inc.
 340 Quinnipiac St., Bldg. 40, Wallingford CT 06492
  
  
 ---------------------------------------------------------------
 Warning -- This program may not be used in any manner that
 competes with the business of Gaussian, Inc. or will provide
 assistance to any competitor of Gaussian, Inc.  The licensee
 of this program is prohibited from giving any competitor of
 Gaussian, Inc. access to this program.  By using this program,
 the user acknowledges that Gaussian, Inc. is engaged in the
 business of creating and licensing software in the field of
 computational chemistry and represents and warrants to the
 licensee that it is not a competitor of Gaussian, Inc. and that
 it will not use this program in any manner prohibited above.
 ---------------------------------------------------------------
  

 Cite this work as:
 Gaussian 09, Revision D.01,
 M. J. Frisch, G. W. Trucks, H. B. Schlegel, G. E. Scuseria, 
 M. A. Robb, J. R. Cheeseman, G. Scalmani, V. Barone, B. Mennucci, 
 G. A. Petersson, H. Nakatsuji, M. Caricato, X. Li, H. P. Hratchian, 
 A. F. Izmaylov, J. Bloino, G. Zheng, J. L. Sonnenberg, M. Hada, 
 M. Ehara, K. Toyota, R. Fukuda, J. Hasegawa, M. Ishida, T. Nakajima, 
 Y. Honda, O. Kitao, H. Nakai, T. Vreven, J. A. Montgomery, Jr., 
 J. E. Peralta, F. Ogliaro, M. Bearpark, J. J. Heyd, E. Brothers, 
 K. N. Kudin, V. N. Staroverov, T. Keith, R. Kobayashi, J. Normand, 
 K. Raghavachari, A. Rendell, J. C. Burant, S. S. Iyengar, J. Tomasi, 
 M. Cossi, N. Rega, J. M. Millam, M. Klene, J. E. Knox, J. B. Cross, 
 V. Bakken, C. Adamo, J. Jaramillo, R. Gomperts, R. E. Stratmann, 
 O. Yazyev, A. J. Austin, R. Cammi, C. Pomelli, J. W. Ochterski, 
 R. L. Martin, K. Morokuma, V. G. Zakrzewski, G. A. Voth, 
 P. Salvador, J. J. Dannenberg, S. Dapprich, A. D. Daniels, 
 O. Farkas, J. B. Foresman, J. V. Ortiz, J. Cioslowski, 
 and D. J. Fox, Gaussian, Inc., Wallingford CT, 2013.
 
 ******************************************
 Gaussian 09:  EM64L-G09RevD.01 24-Apr-2013
                 3-Jun-2023 
 ******************************************
 %mem=400MW
 %chk=tmp
 %NProcShared= 32
 Will use up to   32 processors via shared memory.
 ----------------------------------------------------------------------
 # uwb97xd/aug-cc-pvtz opt=(noeig,intern,maxcyc=50) # int=ultrafine nos
 ym iop(7/33=1) guess=(mix,always)
 ----------------------------------------------------------------------
 1/6=50,10=7,11=1,14=-1,18=40,26=4,38=1/1,3;
 2/12=2,15=1,17=6,18=5,29=3,40=1/2;
 3/5=16,6=1,7=10,11=2,16=1,25=1,30=1,71=1,74=-58,75=-5,116=2/1,2,3;
 4/13=-1/1;
 5/5=2,38=5/2;
 6/7=2,8=2,9=2,10=2,28=1/1;
 7/29=1,30=1,33=1/1,2,3,16;
 1/6=50,10=7,11=1,14=-1,18=40,26=4/3(2);
 2/15=1,29=3/2;
 99//99;
 2/15=1,29=3/2;
 3/5=16,6=1,7=10,11=2,16=1,25=1,30=1,71=1,74=-58,75=-5,116=2/1,2,3;
 4/13=-1/1;
 5/5=2,38=5/2;
 7/30=1,33=1/1,2,3,16;
 1/6=50,11=1,14=-1,18=40,26=4/3(-5);
 2/15=1,29=3/2;
 6/7=2,8=2,9=2,10=2,19=2,28=1/1;
 99/9=1/99;
 ------
 geom 0
 ------
 Symbolic Z-matrix:
 Charge =  0 Multiplicity = 1
 C1
 H2                   C1   R1
 H3                   C1   R2       H2   A2
 H4                   C1   R3       H2   A3       H3   D3       0
 H21                  1    rts      2    aabs1    3    babs1    0
       Variables:
  BABS1                89.6591                   
  AABS1                89.7314                   
       Constants:
  R3                    1.0782                   
  A2                  119.9721                   
  A3                  120.0207                   
  D3                  179.8076                   
  R2                    1.0782                   
  R1                    1.0782                   
  RTS                   4.                       
 

 GradGradGradGradGradGradGradGradGradGradGradGradGradGradGradGradGradGrad
 Berny optimization.
 Initialization pass.
                       ----------------------------
                       !    Initial Parameters    !
                       ! (Angstroms and Degrees)  !
 ----------------------                            ----------------------
 !      Name          Value   Derivative information (Atomic Units)     !
 ------------------------------------------------------------------------
 !      BABS1       89.6591   estimate D2E/DX2                          !
 !      AABS1       89.7314   estimate D2E/DX2                          !
 !       R3          1.0782   Frozen                                    !
 !       A2        119.9721   Frozen                                    !
 !       A3        120.0207   Frozen                                    !
 !       D3        179.8076   Frozen                                    !
 !       R2          1.0782   Frozen                                    !
 !       R1          1.0782   Frozen                                    !
 !       RTS         4.0      Frozen                                    !
 ------------------------------------------------------------------------
 Trust Radius=3.00D-01 FncErr=1.00D-07 GrdErr=1.00D-06
 Number of steps in this run=     50 maximum allowed number of steps=    100.
 GradGradGradGradGradGradGradGradGradGradGradGradGradGradGradGradGradGrad

 ---------------------------------------------------------------------------------------------------
                            Z-MATRIX (ANGSTROMS AND DEGREES)
   CD    Cent   Atom    N1       Length/X        N2       Alpha/Y        N3        Beta/Z          J
 ---------------------------------------------------------------------------------------------------
      1      1  C 
      2      2  H        1   1.078200(     1)
      3      3  H        1   1.078200(     2)      2  119.972(     5)
      4      4  H        1   1.078200(     3)      2  120.021(     6)      3  179.808(     8)      0
      5      5  H        1   4.000000(     4)      2   89.731(     7)      3   89.659(     9)      0
 ---------------------------------------------------------------------------------------------------
                         Z-Matrix orientation:                         
 ---------------------------------------------------------------------
 Center     Atomic      Atomic             Coordinates (Angstroms)
 Number     Number       Type             X           Y           Z
 ---------------------------------------------------------------------
      1          6           0        0.000000    0.000000    0.000000
      2          1           0        0.000000    0.000000    1.078200
      3          1           0        0.934011    0.000000   -0.538645
      4          1           0       -0.933548   -0.003135   -0.539437
      5          1           0        0.023799   -3.999885    0.018752
 ---------------------------------------------------------------------
                    Distance matrix (angstroms):
                    1          2          3          4          5
     1  C    0.000000
     2  H    1.078200   0.000000
     3  H    1.078200   1.867235   0.000000
     4  H    1.078200   1.867692   1.867562   0.000000
     5  H    4.000000   4.137883   4.139838   4.147542   0.000000
 Symmetry turned off by external request.
 Stoichiometry    CH4
 Framework group  C1[X(CH4)]
 Deg. of freedom     9
 Full point group                 C1      NOp   1
 Rotational constants (GHZ):    143.7872637     29.9628528     29.9611454
 Standard basis: Aug-CC-pVTZ (5D, 7F)
   138 basis functions,   180 primitive gaussians,   155 cartesian basis functions
     5 alpha electrons        5 beta electrons
       nuclear repulsion energy        10.8614951398 Hartrees.
 NAtoms=    5 NActive=    5 NUniq=    5 SFac= 1.00D+00 NAtFMM=   60 NAOKFM=F Big=F
 Integral buffers will be    131072 words long.
 Raffenetti 2 integral format.
 Two-electron integral symmetry is turned off.
 Nuclear repulsion after empirical dispersion term =       10.8611606862 Hartrees.
 One-electron integrals computed using PRISM.
 NBasis=   138 RedAO= T EigKep=  1.02D-04  NBF=   138
 NBsUse=   138 1.00D-06 EigRej= -1.00D+00 NBFU=   138
 ExpMin= 2.53D-02 ExpMax= 8.24D+03 ExpMxC= 2.81D+02 IAcc=3 IRadAn=         5 AccDes= 0.00D+00
 Harris functional with IExCor= 4639 and IRadAn=       5 diagonalized for initial guess.
 HarFok:  IExCor= 4639 AccDes= 0.00D+00 IRadAn=         5 IDoV= 1 UseB2=F ITyADJ=14
 ICtDFT=  3500011 ScaDFX=  1.000000  1.000000  1.000000  1.000000
 FoFCou: FMM=F IPFlag=           0 FMFlag=      100000 FMFlg1=           0
         NFxFlg=           0 DoJE=T BraDBF=F KetDBF=T FulRan=T
         wScrn=  0.000000 ICntrl=     500 IOpCl=  0 I1Cent=   200000004 NGrid=           0
         NMat0=    1 NMatS0=      1 NMatT0=    0 NMatD0=    1 NMtDS0=    0 NMtDT0=    0
 Symmetry not used in FoFCou.
 Mixing orbitals, IMix= 1 IMixAn=  0 NRI=1 NE=    5 Coef=  7.07106781D-01  7.07106781D-01
 Mixing orbitals, IMix= 1 IMixAn=  0 NRI=1 NE=    5 Coef= -7.07106781D-01  7.07106781D-01
 Initial guess <Sx>= 0.0000 <Sy>= 0.0000 <Sz>= 0.0000 <S**2>= 1.0000 S= 0.6180
 Keep R1 and R2 ints in memory in canonical form, NReq=186088225.
 Requested convergence on RMS density matrix=1.00D-08 within 128 cycles.
 Requested convergence on MAX density matrix=1.00D-06.
 Requested convergence on             energy=1.00D-06.
 No special actions if energy rises.
 SCF Done:  E(UwB97XD) =  -40.3417761212     A.U. after   10 cycles
            NFock= 10  Conv=0.70D-08     -V/T= 2.0069
 <Sx>= 0.0000 <Sy>= 0.0000 <Sz>= 0.0000 <S**2>= 1.0024 S= 0.6191
 <L.S>=  0.00000000000    
 Annihilation of the first spin contaminant:
 S**2 before annihilation     1.0024,   after     0.0318

 **********************************************************************

            Population analysis using the SCF density.

 **********************************************************************

 Alpha  occ. eigenvalues --  -10.29532  -0.78662  -0.50906  -0.50898  -0.31495
 Alpha virt. eigenvalues --    0.03583   0.05285   0.05291   0.10771   0.13348
 Alpha virt. eigenvalues --    0.13353   0.13464   0.13645   0.20133   0.20135
 Alpha virt. eigenvalues --    0.22905   0.25620   0.25624   0.32523   0.32929
 Alpha virt. eigenvalues --    0.32934   0.34223   0.35365   0.37936   0.39510
 Alpha virt. eigenvalues --    0.39531   0.39838   0.39851   0.41755   0.41763
 Alpha virt. eigenvalues --    0.43627   0.49052   0.49065   0.53646   0.57560
 Alpha virt. eigenvalues --    0.67430   0.69025   0.69032   0.75446   0.75448
 Alpha virt. eigenvalues --    0.78782   0.78784   0.80531   0.84255   0.90964
 Alpha virt. eigenvalues --    0.93362   0.93978   0.93987   0.94672   0.94680
 Alpha virt. eigenvalues --    1.02295   1.02311   1.03157   1.03788   1.05772
 Alpha virt. eigenvalues --    1.07412   1.07427   1.09053   1.09057   1.16946
 Alpha virt. eigenvalues --    1.16959   1.18267   1.18283   1.18440   1.26981
 Alpha virt. eigenvalues --    1.35575   1.35583   1.49099   1.49837   1.49841
 Alpha virt. eigenvalues --    1.50709   1.51899   1.54088   1.54092   1.55883
 Alpha virt. eigenvalues --    1.55907   1.60485   1.65130   1.78766   1.78774
 Alpha virt. eigenvalues --    1.94484   1.94493   1.96280   2.05376   2.05391
 Alpha virt. eigenvalues --    2.06866   2.71541   2.74052   2.74053   2.98349
 Alpha virt. eigenvalues --    2.98979   2.98983   3.27784   3.33451   3.34358
 Alpha virt. eigenvalues --    3.34367   3.37486   3.37494   3.42888   3.42893
 Alpha virt. eigenvalues --    3.43067   3.49303   3.69786   3.70501   3.73760
 Alpha virt. eigenvalues --    3.73765   3.99825   3.99829   4.14495   4.14532
 Alpha virt. eigenvalues --    4.15026   4.39240   4.43539   4.43543   4.44954
 Alpha virt. eigenvalues --    4.44956   4.48463   4.56722   4.56724   4.59832
 Alpha virt. eigenvalues --    4.59835   4.74065   4.74066   4.78659   4.79088
 Alpha virt. eigenvalues --    4.79758   5.04823   5.04879   5.09836   5.09866
 Alpha virt. eigenvalues --    5.17841   5.17851   5.28152   6.06172   6.18432
 Alpha virt. eigenvalues --    6.18469   6.40465  15.93426
  Beta  occ. eigenvalues --  -10.28408  -0.74155  -0.49678  -0.49670  -0.40338
  Beta virt. eigenvalues --   -0.00161   0.04117   0.05333   0.05335   0.06450
  Beta virt. eigenvalues --    0.13444   0.13516   0.13520   0.15080   0.19440
  Beta virt. eigenvalues --    0.19443   0.20390   0.20403   0.20920   0.27469
  Beta virt. eigenvalues --    0.27487   0.30508   0.33596   0.33603   0.34238
  Beta virt. eigenvalues --    0.35178   0.36962   0.38528   0.39600   0.39618
  Beta virt. eigenvalues --    0.40902   0.40905   0.42473   0.42474   0.44592
  Beta virt. eigenvalues --    0.58755   0.66095   0.68341   0.68367   0.73825
  Beta virt. eigenvalues --    0.73828   0.75239   0.75246   0.77358   0.77370
  Beta virt. eigenvalues --    0.79203   0.80566   0.83896   0.83932   0.85135
  Beta virt. eigenvalues --    0.91924   0.92554   0.92574   0.94770   0.94781
  Beta virt. eigenvalues --    0.95408   0.97305   0.97363   1.03346   1.03368
  Beta virt. eigenvalues --    1.03595   1.04387   1.09141   1.09146   1.11062
  Beta virt. eigenvalues --    1.11109   1.11653   1.24902   1.35597   1.35604
  Beta virt. eigenvalues --    1.48810   1.50510   1.50514   1.50820   1.55523
  Beta virt. eigenvalues --    1.56319   1.56343   1.67597   1.79261   1.79268
  Beta virt. eigenvalues --    1.95478   1.95486   1.96045   2.05634   2.05649
  Beta virt. eigenvalues --    2.09041   2.38865   2.75414   2.75415   2.77780
  Beta virt. eigenvalues --    3.00246   3.02323   3.02326   3.34640   3.37078
  Beta virt. eigenvalues --    3.37085   3.40499   3.40503   3.43503   3.44254
  Beta virt. eigenvalues --    3.44259   3.51451   3.64666   3.64670   3.66454
  Beta virt. eigenvalues --    3.66459   3.70329   3.70803   3.72090   3.74394
  Beta virt. eigenvalues --    3.74405   3.81702   3.81702   3.88121   4.01383
  Beta virt. eigenvalues --    4.01386   4.16207   4.16248   4.16338   4.43418
  Beta virt. eigenvalues --    4.57063   4.57065   4.60060   4.60063   4.78598
  Beta virt. eigenvalues --    4.81695   5.05201   5.05259   5.12935   5.12964
  Beta virt. eigenvalues --    5.18385   5.18394   5.29528   6.07432   6.19032
  Beta virt. eigenvalues --    6.19070   6.41372  15.96036
          Condensed to atoms (all electrons):
               1          2          3          4          5
     1  C    6.008382   0.346103   0.346104   0.346127  -0.000352
     2  H    0.346103   0.288879   0.008617   0.008594  -0.000552
     3  H    0.346104   0.008617   0.288864   0.008599  -0.000550
     4  H    0.346127   0.008594   0.008599   0.288831  -0.000537
     5  H   -0.000352  -0.000552  -0.000550  -0.000537   1.000738
          Atomic-Atomic Spin Densities.
               1          2          3          4          5
     1  C    0.995116   0.014792   0.014788   0.014805  -0.002379
     2  H    0.014792  -0.032531   0.002773   0.002772   0.000399
     3  H    0.014788   0.002773  -0.032550   0.002770   0.000398
     4  H    0.014805   0.002772   0.002770  -0.032568   0.000387
     5  H   -0.002379   0.000399   0.000398   0.000387  -1.000477
 Mulliken charges and spin densities:
               1          2
     1  C   -1.046364   1.037122
     2  H    0.348359  -0.011794
     3  H    0.348366  -0.011822
     4  H    0.348386  -0.011835
     5  H    0.001252  -1.001672
 Sum of Mulliken charges =  -0.00000   0.00000
 Mulliken charges and spin densities with hydrogens summed into heavy atoms:
               1          2
     1  C   -0.000000   0.000000
 Electronic spatial extent (au):  <R**2>=             90.2521
 Charge=             -0.0000 electrons
 Dipole moment (field-independent basis, Debye):
    X=              0.0001    Y=             -0.0048    Z=              0.0000  Tot=              0.0048
 Quadrupole moment (field-independent basis, Debye-Ang):
   XX=             -8.6083   YY=            -10.5724   ZZ=             -8.6088
   XY=              0.0038   XZ=              0.0009   YZ=              0.0023
 Traceless Quadrupole moment (field-independent basis, Debye-Ang):
   XX=              0.6548   YY=             -1.3093   ZZ=              0.6544
   XY=              0.0038   XZ=              0.0009   YZ=              0.0023
 Octapole moment (field-independent basis, Debye-Ang**2):
  XXX=             -0.1016  YYY=             17.5976  ZZZ=              0.8395  XYY=             -0.0384
  XXY=              5.6735  XXZ=             -0.9463  XZZ=             -0.0349  YZZ=              5.6753
  YYZ=             -0.0301  XYZ=             -0.0015
 Hexadecapole moment (field-independent basis, Debye-Ang**3):
 XXXX=            -16.8966 YYYY=           -153.8686 ZZZZ=            -16.8947 XXXY=              0.4063
 XXXZ=             -0.0023 YYYX=              0.4249 YYYZ=              0.3359 ZZZX=             -0.0014
 ZZZY=              0.3193 XXYY=            -28.3281 XXZZ=             -5.6320 YYZZ=            -28.3276
 XXYZ=              0.1077 YYXZ=             -0.0010 ZZXY=              0.1354
 N-N= 1.086116068617D+01 E-N=-1.146107275825D+02  KE= 4.006466697111D+01
                          Isotropic Fermi Contact Couplings
        Atom                 a.u.       MegaHertz       Gauss      10(-4) cm-1
     1  C(13)              0.01749       9.83141       3.50809       3.27941
     2  H(1)              -0.01400     -31.28026     -11.16157     -10.43397
     3  H(1)              -0.01400     -31.28576     -11.16354     -10.43581
     4  H(1)              -0.01400     -31.28987     -11.16500     -10.43718
     5  H(1)              -0.29164    -651.79699    -232.57737    -217.41607
 --------------------------------------------------------
       Center         ----  Spin Dipole Couplings  ----
                      3XX-RR        3YY-RR        3ZZ-RR
 --------------------------------------------------------
     1   Atom       -0.566582      1.133212     -0.566630
     2   Atom       -0.075846     -0.001498      0.077345
     3   Atom        0.039110     -0.001486     -0.037624
     4   Atom        0.038955     -0.001435     -0.037520
     5   Atom       -0.002823      0.005647     -0.002823
 --------------------------------------------------------
                        XY            XZ            YZ
 --------------------------------------------------------
     1   Atom       -0.002833     -0.000007     -0.001630
     2   Atom       -0.000100      0.000010     -0.001510
     3   Atom       -0.001362     -0.066292      0.000677
     4   Atom        0.001535      0.066350      0.000895
     5   Atom       -0.000055      0.000000     -0.000043
 --------------------------------------------------------


 ---------------------------------------------------------------------------------
              Anisotropic Spin Dipole Couplings in Principal Axis System
 ---------------------------------------------------------------------------------

       Atom             a.u.   MegaHertz   Gauss  10(-4) cm-1        Axes

              Baa    -0.5666   -76.037   -27.132   -25.363  0.1982  0.0013  0.9802
     1 C(13)  Bbb    -0.5666   -76.030   -27.130   -25.361  0.9802  0.0014 -0.1982
              Bcc     1.1332   152.067    54.261    50.724 -0.0017  1.0000 -0.0010
 
              Baa    -0.0758   -40.468   -14.440   -13.499  1.0000  0.0013 -0.0001
     2 H(1)   Bbb    -0.0015    -0.815    -0.291    -0.272 -0.0013  0.9998  0.0191
              Bcc     0.0774    41.283    14.731    13.771  0.0001 -0.0191  0.9998
 
              Baa    -0.0759   -40.471   -14.441   -13.500  0.4996  0.0013  0.8663
     3 H(1)   Bbb    -0.0015    -0.808    -0.288    -0.270  0.0160  0.9998 -0.0107
              Bcc     0.0774    41.279    14.729    13.769  0.8661 -0.0192 -0.4994
 
              Baa    -0.0759   -40.476   -14.443   -13.502 -0.5003 -0.0001  0.8658
     4 H(1)   Bbb    -0.0015    -0.787    -0.281    -0.262 -0.0196  0.9997 -0.0112
              Bcc     0.0773    41.263    14.724    13.764  0.8656  0.0226  0.5002
 
              Baa    -0.0028    -1.507    -0.538    -0.503 -0.4827  0.0014  0.8758
     5 H(1)   Bbb    -0.0028    -1.506    -0.538    -0.503  0.8757  0.0081  0.4827
              Bcc     0.0056     3.013     1.075     1.005 -0.0064  1.0000 -0.0051
 

 ---------------------------------------------------------------------------------

 DipInt: DoE/N= T T RetVal/Mat= T F Init=T NMatP=  1 IDeriv=0 Min/MaxMlt=  1  1
 Entering OneElI...
 Multipole integrals L=1 to 1 MinM= 0 MaxM= 0.
 Requested accuracy = 0.1000D-12
 PrsmSu:  NPrtUS=   1 ThrOK=F IAlg=1 NPAlg=1 LenDen=           0.
 Prism:   IPart=     0 DynPar=F LinDyn=F Incr=          12.
 PRISM was handed   419324594 working-precision words and  1269 shell-pairs
 IPart=  0 NShTot=        1269 NBatch=          35 AvBLen=        36.3
 PrSmSu:  NxtVal=             13.
 Entering OneElI...
 Calculate overlap and kinetic energy integrals
    NBasis = 155  MinDer = 1  MaxDer = 1
 Requested accuracy = 0.1000D-12
 PrsmSu:  NPrtUS=  32 ThrOK=T IAlg=1 NPAlg=1 LenDen=           0.
 Prism:   IPart=     0 DynPar=F LinDyn=F Incr=           1.
 PRISM was handed    13082929 working-precision words and  1275 shell-pairs
 PRISM was handed    13082929 working-precision words and  1275 shell-pairs
 PRISM was handed    13082929 working-precision words and  1275 shell-pairs
 PRISM was handed    13082929 working-precision words and  1275 shell-pairs
 PRISM was handed    13082929 working-precision words and  1275 shell-pairs
 PRISM was handed    13082929 working-precision words and  1275 shell-pairs
 PRISM was handed    13082929 working-precision words and  1275 shell-pairs
 PRISM was handed    13082929 working-precision words and  1275 shell-pairs
 PRISM was handed    13082929 working-precision words and  1275 shell-pairs
 PRISM was handed    13082929 working-precision words and  1275 shell-pairs
 PRISM was handed    13082929 working-precision words and  1275 shell-pairs
 PRISM was handed    13082929 working-precision words and  1275 shell-pairs
 PRISM was handed    13082929 working-precision words and  1275 shell-pairs
 PRISM was handed    13082929 working-precision words and  1275 shell-pairs
 PRISM was handed    13082929 working-precision words and  1275 shell-pairs
 PRISM was handed    13082929 working-precision words and  1275 shell-pairs
 PRISM was handed    13082929 working-precision words and  1275 shell-pairs
 PRISM was handed    13082929 working-precision words and  1275 shell-pairs
 PRISM was handed    13082929 working-precision words and  1275 shell-pairs
 PRISM was handed    13082929 working-precision words and  1275 shell-pairs
 PRISM was handed    13082929 working-precision words and  1275 shell-pairs
 PRISM was handed    13082929 working-precision words and  1275 shell-pairs
 PRISM was handed    13082929 working-precision words and  1275 shell-pairs
 PRISM was handed    13082929 working-precision words and  1275 shell-pairs
 PRISM was handed    13082929 working-precision words and  1275 shell-pairs
 PRISM was handed    13082929 working-precision words and  1275 shell-pairs
 PRISM was handed    13082929 working-precision words and  1275 shell-pairs
 PRISM was handed    13082929 working-precision words and  1275 shell-pairs
 PRISM was handed    13082929 working-precision words and  1275 shell-pairs
 PRISM was handed    13082929 working-precision words and  1275 shell-pairs
 PRISM was handed    13082929 working-precision words and  1275 shell-pairs
 PRISM was handed    13082929 working-precision words and  1275 shell-pairs
 IPart=  0 NShTot=          69 NBatch=          40 AvBLen=         1.7
 IPart= 15 NShTot=          36 NBatch=          13 AvBLen=         2.8
 IPart= 25 NShTot=          32 NBatch=          11 AvBLen=         2.9
 IPart=  1 NShTot=          59 NBatch=          30 AvBLen=         2.0
 IPart= 21 NShTot=          35 NBatch=          12 AvBLen=         2.9
 IPart= 26 NShTot=          32 NBatch=          11 AvBLen=         2.9
 IPart= 16 NShTot=          35 NBatch=          12 AvBLen=         2.9
 IPart=  6 NShTot=          46 NBatch=          21 AvBLen=         2.2
 IPart= 19 NShTot=          35 NBatch=          12 AvBLen=         2.9
 IPart= 10 NShTot=          44 NBatch=          20 AvBLen=         2.2
 IPart= 18 NShTot=          35 NBatch=          12 AvBLen=         2.9
 IPart= 29 NShTot=          32 NBatch=          11 AvBLen=         2.9
 IPart= 27 NShTot=          32 NBatch=          11 AvBLen=         2.9
 IPart=  2 NShTot=          55 NBatch=          27 AvBLen=         2.0
 IPart= 14 NShTot=          37 NBatch=          14 AvBLen=         2.6
 IPart= 31 NShTot=          29 NBatch=           9 AvBLen=         3.2
 IPart=  8 NShTot=          44 NBatch=          20 AvBLen=         2.2
 IPart= 23 NShTot=          34 NBatch=          11 AvBLen=         3.1
 IPart= 22 NShTot=          34 NBatch=          11 AvBLen=         3.1
 IPart= 17 NShTot=          35 NBatch=          12 AvBLen=         2.9
 IPart= 24 NShTot=          32 NBatch=          11 AvBLen=         2.9
 IPart= 13 NShTot=          40 NBatch=          17 AvBLen=         2.4
 IPart=  4 NShTot=          49 NBatch=          21 AvBLen=         2.3
 IPart= 20 NShTot=          35 NBatch=          12 AvBLen=         2.9
 IPart= 11 NShTot=          41 NBatch=          17 AvBLen=         2.4
 IPart=  5 NShTot=          46 NBatch=          21 AvBLen=         2.2
 IPart= 12 NShTot=          40 NBatch=          17 AvBLen=         2.4
 IPart= 28 NShTot=          32 NBatch=          11 AvBLen=         2.9
 IPart=  9 NShTot=          44 NBatch=          20 AvBLen=         2.2
 IPart=  7 NShTot=          46 NBatch=          21 AvBLen=         2.2
 IPart= 30 NShTot=          30 NBatch=           9 AvBLen=         3.3
 IPart=  3 NShTot=          50 NBatch=          22 AvBLen=         2.3
 PrSmSu:  NxtVal=             33.
 Entering OneElI...
 Calculate potential energy integrals
    NBasis = 155  MinDer = 1  MaxDer = 1
 Requested accuracy = 0.1000D-12
 PrsmSu:  NPrtUS=  32 ThrOK=T IAlg=1 NPAlg=1 LenDen=           0.
 Prism:   IPart=     0 DynPar=F LinDyn=F Incr=           1.
 PRISM was handed    13084588 working-precision words and  1235 shell-pairs
 PRISM was handed    13084588 working-precision words and  1235 shell-pairs
 PRISM was handed    13084588 working-precision words and  1235 shell-pairs
 PRISM was handed    13084588 working-precision words and  1235 shell-pairs
 PRISM was handed    13084588 working-precision words and  1235 shell-pairs
 PRISM was handed    13084588 working-precision words and  1235 shell-pairs
 PRISM was handed    13084588 working-precision words and  1235 shell-pairs
 PRISM was handed    13084588 working-precision words and  1235 shell-pairs
 PRISM was handed    13084588 working-precision words and  1235 shell-pairs
 PRISM was handed    13084588 working-precision words and  1235 shell-pairs
 PRISM was handed    13084588 working-precision words and  1235 shell-pairs
 PRISM was handed    13084588 working-precision words and  1235 shell-pairs
 PRISM was handed    13084588 working-precision words and  1235 shell-pairs
 PRISM was handed    13084588 working-precision words and  1235 shell-pairs
 PRISM was handed    13084588 working-precision words and  1235 shell-pairs
 PRISM was handed    13084588 working-precision words and  1235 shell-pairs
 PRISM was handed    13084588 working-precision words and  1235 shell-pairs
 PRISM was handed    13084588 working-precision words and  1235 shell-pairs
 PRISM was handed    13084588 working-precision words and  1235 shell-pairs
 PRISM was handed    13084588 working-precision words and  1235 shell-pairs
 PRISM was handed    13084588 working-precision words and  1235 shell-pairs
 PRISM was handed    13084588 working-precision words and  1235 shell-pairs
 PRISM was handed    13084588 working-precision words and  1235 shell-pairs
 PRISM was handed    13084588 working-precision words and  1235 shell-pairs
 PRISM was handed    13084588 working-precision words and  1235 shell-pairs
 PRISM was handed    13084588 working-precision words and  1235 shell-pairs
 PRISM was handed    13084588 working-precision words and  1235 shell-pairs
 PRISM was handed    13084588 working-precision words and  1235 shell-pairs
 PRISM was handed    13084588 working-precision words and  1235 shell-pairs
 PRISM was handed    13084588 working-precision words and  1235 shell-pairs
 PRISM was handed    13084588 working-precision words and  1235 shell-pairs
 PRISM was handed    13084588 working-precision words and  1235 shell-pairs
 IPart= 17 NShTot=         175 NBatch=          35 AvBLen=         5.0
 IPart=  7 NShTot=         215 NBatch=          43 AvBLen=         5.0
 IPart= 22 NShTot=         165 NBatch=          33 AvBLen=         5.0
 IPart=  3 NShTot=         235 NBatch=          47 AvBLen=         5.0
 IPart= 20 NShTot=         175 NBatch=          35 AvBLen=         5.0
 IPart= 13 NShTot=         195 NBatch=          39 AvBLen=         5.0
 IPart= 26 NShTot=         160 NBatch=          32 AvBLen=         5.0
 IPart= 15 NShTot=         175 NBatch=          35 AvBLen=         5.0
 IPart= 30 NShTot=         140 NBatch=          28 AvBLen=         5.0
 IPart= 11 NShTot=         200 NBatch=          40 AvBLen=         5.0
 IPart= 24 NShTot=         160 NBatch=          32 AvBLen=         5.0
 IPart=  5 NShTot=         220 NBatch=          44 AvBLen=         5.0
 IPart=  9 NShTot=         215 NBatch=          43 AvBLen=         5.0
 IPart=  1 NShTot=         285 NBatch=          57 AvBLen=         5.0
 IPart= 12 NShTot=         200 NBatch=          40 AvBLen=         5.0
 IPart= 28 NShTot=         155 NBatch=          31 AvBLen=         5.0
 IPart= 23 NShTot=         165 NBatch=          33 AvBLen=         5.0
 IPart=  4 NShTot=         230 NBatch=          46 AvBLen=         5.0
 IPart= 21 NShTot=         170 NBatch=          34 AvBLen=         5.0
 IPart= 31 NShTot=         135 NBatch=          27 AvBLen=         5.0
 IPart= 19 NShTot=         175 NBatch=          35 AvBLen=         5.0
 IPart=  6 NShTot=         220 NBatch=          44 AvBLen=         5.0
 IPart=  0 NShTot=         325 NBatch=          65 AvBLen=         5.0
 IPart=  2 NShTot=         265 NBatch=          53 AvBLen=         5.0
 IPart= 16 NShTot=         175 NBatch=          35 AvBLen=         5.0
 IPart= 29 NShTot=         150 NBatch=          30 AvBLen=         5.0
 IPart= 18 NShTot=         175 NBatch=          35 AvBLen=         5.0
 IPart=  8 NShTot=         215 NBatch=          43 AvBLen=         5.0
 IPart= 27 NShTot=         160 NBatch=          32 AvBLen=         5.0
 IPart= 25 NShTot=         160 NBatch=          32 AvBLen=         5.0
 IPart= 14 NShTot=         185 NBatch=          37 AvBLen=         5.0
 IPart= 10 NShTot=         200 NBatch=          40 AvBLen=         5.0
 PrSmSu:  NxtVal=             33.
 l701 out
 I=    0 X=   2.086122389369D-05 Y=  -1.878353001032D-03 Z=   2.840984088197D-06
 I=    1 X=  -1.705721015346D-03 Y=   4.246633258829D-02 Z=  -7.334089943073D-04
 I=    2 X=  -3.695934565734D-05 Y=   3.824680424812D-02 Z=   2.313222848204D+00
 I=    3 X=   2.003841134873D+00 Y=   3.811924077221D-02 Z=  -1.155726209012D+00
 I=    4 X=  -2.002972286491D+00 Y=   3.091703723928D-02 Z=  -1.157451739392D+00
 I=    5 X=   8.738319786876D-04 Y=  -1.497494148479D-01 Z=   6.885091941397D-04
 ICntrl=      2127.
 Calling FoFJK, ICntrl=      2127 FMM=F ISym2X=0 I1Cent= 0 IOpClX= 1 NMat=1 NMatS=1 NMatT=0.
 FoFJK:  IHMeth= 1 ICntrl=    2127 DoSepK=T KAlg= 0 I1Cent=   0 FoldK=F
 IRaf=         1 NMat=   1 IRICut=       1 DoRegI=T DoRafI=F ISym2E= 0.
 FoFCou: FMM=F IPFlag=           0 FMFlag=      100000 FMFlg1=         800
         NFxFlg=           0 DoJE=F BraDBF=F KetDBF=F FulRan=T
         wScrn=  0.000000 ICntrl=    2527 IOpCl=  0 I1Cent=           0 NGrid=           0
         NMat0=    1 NMatS0=      1 NMatT0=    0 NMatD0=    1 NMtDS0=    0 NMtDT0=    0
 Symmetry not used in FoFCou.
 FoFCou:  KetSym=F NOpSet=  1 NOpAb=1 NOp=  1.
 FoFCou:  CnvScl= 1.00D+00 Thresh= 1.00D-10 IAcrcy=      10.
 PrismS was handed   419299890 working-precision words and  1253 shell-pairs
 FoFCou: LinMIO=F DoNuc=F BraDBF=F KetDBF=F HaveP=T PDBF=F HaveZ=T HaveW=F
         NIJTC =      10 NIJTAt=       0 NIJTCD=       0 NIJTT =      10
         IJTBeg=       1 IJTEnd=      10 KLTBeg=       1 KLTEnd=      10
         IPTBeg=       1 IPTEnd=      10 IPTBCv=       1 IPTECv=      10
         IZTBeg=       1 IZTEnd=      10 IZTBCv=       1 IZTECv=      10
         IWTBeg=      11 IWTEnd=      10 IWTBCv=      11 IWTECv=      10
         INTBeg=       1 INTEnd=       0 IFTBCv=       1 IFTECv=      10
 NCel replicated for PrismC:     1
 CoulSu:  IncDef=  1024 NBBP=         785631 NTPThr=   100 NPartT=   32 Incr=         245 LDynOK=F.
 CoulSu:  NPrtUS=  32 ThrOK=T IAlg=1 NPAlg=1 LenDen=           0 LWGrdD=           0 DoCopy=F.
 Enter PrismC: JobTyp=21 DoJE=F Cont=F.
 Enter PrismC: JobTyp=21 DoJE=F Cont=F.
 Enter PrismC: JobTyp=21 DoJE=F Cont=F.
 PrismC:  IPart=     0 DynPar=T LinDyn=F Incr=         245 UseFst=F UseS4=T IGathr=2.
 PrismC was handed    13083586 working-precision words and  1253 shell-pairs
 Enter PrismC: JobTyp=21 DoJE=F Cont=F.
 Enter PrismC: JobTyp=21 DoJE=F Cont=F.
 Enter PrismC: JobTyp=21 DoJE=F Cont=F.
 Enter PrismC: JobTyp=21 DoJE=F Cont=F.
 Enter PrismC: JobTyp=21 DoJE=F Cont=F.
 Enter PrismC: JobTyp=21 DoJE=F Cont=F.
 Enter PrismC: JobTyp=21 DoJE=F Cont=F.
 Enter PrismC: JobTyp=21 DoJE=F Cont=F.
 Enter PrismC: JobTyp=21 DoJE=F Cont=F.
 Enter PrismC: JobTyp=21 DoJE=F Cont=F.
 Enter PrismC: JobTyp=21 DoJE=F Cont=F.
 Enter PrismC: JobTyp=21 DoJE=F Cont=F.
 Enter PrismC: JobTyp=21 DoJE=F Cont=F.
 Enter PrismC: JobTyp=21 DoJE=F Cont=F.
 Enter PrismC: JobTyp=21 DoJE=F Cont=F.
 Enter PrismC: JobTyp=21 DoJE=F Cont=F.
 PrismC was handed    13083586 working-precision words and  1253 shell-pairs
 Enter PrismC: JobTyp=21 DoJE=F Cont=F.
 PrismC was handed    13083586 working-precision words and  1253 shell-pairs
 Enter PrismC: JobTyp=21 DoJE=F Cont=F.
 PrismC was handed    13083586 working-precision words and  1253 shell-pairs
 Enter PrismC: JobTyp=21 DoJE=F Cont=F.
 PrismC was handed    13083586 working-precision words and  1253 shell-pairs
 Enter PrismC: JobTyp=21 DoJE=F Cont=F.
 PrismC was handed    13083586 working-precision words and  1253 shell-pairs
 Enter PrismC: JobTyp=21 DoJE=F Cont=F.
 PrismC was handed    13083586 working-precision words and  1253 shell-pairs
 Enter PrismC: JobTyp=21 DoJE=F Cont=F.
 PrismC was handed    13083586 working-precision words and  1253 shell-pairs
 Enter PrismC: JobTyp=21 DoJE=F Cont=F.
 PrismC was handed    13083586 working-precision words and  1253 shell-pairs
 Enter PrismC: JobTyp=21 DoJE=F Cont=F.
 PrismC was handed    13083586 working-precision words and  1253 shell-pairs
 Enter PrismC: JobTyp=21 DoJE=F Cont=F.
 PrismC was handed    13083586 working-precision words and  1253 shell-pairs
 Enter PrismC: JobTyp=21 DoJE=F Cont=F.
 PrismC was handed    13083586 working-precision words and  1253 shell-pairs
 Enter PrismC: JobTyp=21 DoJE=F Cont=F.
 PrismC was handed    13083586 working-precision words and  1253 shell-pairs
 Enter PrismC: JobTyp=21 DoJE=F Cont=F.
 PrismC was handed    13083586 working-precision words and  1253 shell-pairs
 PrismC was handed    13083586 working-precision words and  1253 shell-pairs
 PrismC was handed    13083586 working-precision words and  1253 shell-pairs
 Enter PrismC: JobTyp=21 DoJE=F Cont=F.
 PrismC was handed    13083586 working-precision words and  1253 shell-pairs
 PrismC was handed    13083586 working-precision words and  1253 shell-pairs
 PrismC was handed    13083586 working-precision words and  1253 shell-pairs
 PrismC was handed    13083586 working-precision words and  1253 shell-pairs
 PrismC was handed    13083586 working-precision words and  1253 shell-pairs
 PrismC was handed    13083586 working-precision words and  1253 shell-pairs
 PrismC was handed    13083586 working-precision words and  1253 shell-pairs
 PrismC was handed    13083586 working-precision words and  1253 shell-pairs
 PrismC was handed    13083586 working-precision words and  1253 shell-pairs
 PrismC was handed    13083586 working-precision words and  1253 shell-pairs
 PrismC was handed    13083586 working-precision words and  1253 shell-pairs
 PrismC was handed    13083586 working-precision words and  1253 shell-pairs
 PrismC was handed    13083586 working-precision words and  1253 shell-pairs
 PrismC was handed    13083586 working-precision words and  1253 shell-pairs
 PrismC was handed    13083586 working-precision words and  1253 shell-pairs
 PrismC was handed    13083586 working-precision words and  1253 shell-pairs
 IPart= 25 NShTot=       21963 NShNF=       21963 NShFF=           0 NBatch=         218 AvBLen=       100.7
 IPart= 22 NShTot=       22428 NShNF=       22428 NShFF=           0 NBatch=         206 AvBLen=       108.9
 IPart=  1 NShTot=       24318 NShNF=       24318 NShFF=           0 NBatch=         222 AvBLen=       109.5
 IPart= 21 NShTot=       26526 NShNF=       26526 NShFF=           0 NBatch=         234 AvBLen=       113.4
 IPart= 13 NShTot=       22697 NShNF=       22697 NShFF=           0 NBatch=         238 AvBLen=        95.4
 IPart=  0 NShTot=       19238 NShNF=       19238 NShFF=           0 NBatch=         173 AvBLen=       111.2
 IPart= 17 NShTot=       23567 NShNF=       23567 NShFF=           0 NBatch=         218 AvBLen=       108.1
 IPart=  2 NShTot=       23751 NShNF=       23751 NShFF=           0 NBatch=         233 AvBLen=       101.9
 IPart=  9 NShTot=       21929 NShNF=       21929 NShFF=           0 NBatch=         204 AvBLen=       107.5
 IPart= 23 NShTot=       21149 NShNF=       21149 NShFF=           0 NBatch=         237 AvBLen=        89.2
 IPart= 14 NShTot=       21885 NShNF=       21885 NShFF=           0 NBatch=         169 AvBLen=       129.5
 IPart= 12 NShTot=       22613 NShNF=       22613 NShFF=           0 NBatch=         225 AvBLen=       100.5
 IPart=  5 NShTot=       23169 NShNF=       23169 NShFF=           0 NBatch=         237 AvBLen=        97.8
 IPart= 27 NShTot=       25677 NShNF=       25677 NShFF=           0 NBatch=         237 AvBLen=       108.3
 IPart= 30 NShTot=       25064 NShNF=       25064 NShFF=           0 NBatch=         225 AvBLen=       111.4
 IPart=  6 NShTot=       23336 NShNF=       23336 NShFF=           0 NBatch=         227 AvBLen=       102.8
 IPart= 16 NShTot=       23640 NShNF=       23640 NShFF=           0 NBatch=         225 AvBLen=       105.1
 IPart= 20 NShTot=       21653 NShNF=       21653 NShFF=           0 NBatch=         224 AvBLen=        96.7
 IPart= 29 NShTot=       25891 NShNF=       25891 NShFF=           0 NBatch=         222 AvBLen=       116.6
 IPart= 26 NShTot=       19924 NShNF=       19924 NShFF=           0 NBatch=         214 AvBLen=        93.1
 IPart=  3 NShTot=       22747 NShNF=       22747 NShFF=           0 NBatch=         227 AvBLen=       100.2
 IPart= 15 NShTot=       22172 NShNF=       22172 NShFF=           0 NBatch=         227 AvBLen=        97.7
 IPart=  8 NShTot=       19320 NShNF=       19320 NShFF=           0 NBatch=         224 AvBLen=        86.3
 IPart=  4 NShTot=       21756 NShNF=       21756 NShFF=           0 NBatch=         238 AvBLen=        91.4
 IPart=  7 NShTot=       21831 NShNF=       21831 NShFF=           0 NBatch=         242 AvBLen=        90.2
 IPart= 18 NShTot=       18361 NShNF=       18361 NShFF=           0 NBatch=         235 AvBLen=        78.1
 IPart= 28 NShTot=       21112 NShNF=       21112 NShFF=           0 NBatch=         238 AvBLen=        88.7
 IPart= 19 NShTot=       18181 NShNF=       18181 NShFF=           0 NBatch=         235 AvBLen=        77.4
 IPart= 24 NShTot=       19324 NShNF=       19324 NShFF=           0 NBatch=         234 AvBLen=        82.6
 IPart= 10 NShTot=       21579 NShNF=       21579 NShFF=           0 NBatch=         227 AvBLen=        95.1
 IPart= 11 NShTot=       25373 NShNF=       25373 NShFF=           0 NBatch=         234 AvBLen=       108.4
 IPart= 31 NShTot=       21320 NShNF=       21320 NShFF=           0 NBatch=         239 AvBLen=        89.2
 CoulSu:  NxtVal=         869506.
 FoFCou: FMM=F IPFlag=           0 FMFlag=      100000 FMFlg1=         800
         NFxFlg=           0 DoJE=F BraDBF=F KetDBF=F FulRan=T
         wScrn=  0.000000 ICntrl=    2127 IOpCl=  1 I1Cent=           0 NGrid=           0
         NMat0=    1 NMatS0=      0 NMatT0=    1 NMatD0=    1 NMtDS0=    0 NMtDT0=    0
         CW=    0.222036    0.777964
         WU=    0.000000   12.500000
 Symmetry not used in FoFCou.
 FoFCou:  KetSym=F NOpSet=  1 NOpAb=1 NOp=  1.
 FoFCou:  CnvScl= 1.00D+00 Thresh= 1.00D-10 IAcrcy=      10.
 PrismS was handed   419298650 working-precision words and  1253 shell-pairs
 FoFCou: LinMIO=F DoNuc=F BraDBF=F KetDBF=F HaveP=T PDBF=F HaveZ=T HaveW=F
         NIJTC =      10 NIJTAt=       0 NIJTCD=       0 NIJTT =      10
         IJTBeg=       1 IJTEnd=      10 KLTBeg=       1 KLTEnd=      10
         IPTBeg=       1 IPTEnd=      10 IPTBCv=       1 IPTECv=      10
         IZTBeg=       1 IZTEnd=      10 IZTBCv=       1 IZTECv=      10
         IWTBeg=      11 IWTEnd=      10 IWTBCv=      11 IWTECv=      10
         INTBeg=       1 INTEnd=       0 IFTBCv=       1 IFTECv=      10
 NCel replicated for PrismC:     1
 CoulSu:  IncDef=  1024 NBBP=         785631 NTPThr=   100 NPartT=   32 Incr=         245 LDynOK=F.
 CoulSu:  NPrtUS=  32 ThrOK=T IAlg=1 NPAlg=1 LenDen=           0 LWGrdD=           0 DoCopy=F.
 Enter PrismC: JobTyp=21 DoJE=F Cont=F.
 Linear combination for Coulomb/exchange, wScrn=  0.000000
 CW=    0.222036    0.777964
 WU=    0.000000   12.500000
 Enter PrismC: JobTyp=21 DoJE=F Cont=F.
 PrismC:  IPart=     0 DynPar=T LinDyn=F Incr=         245 UseFst=F UseS4=T IGathr=2.
 Linear combination for Coulomb/exchange, wScrn=  0.000000
 CW=    0.222036    0.777964
 WU=    0.000000   12.500000
 Enter PrismC: JobTyp=21 DoJE=F Cont=F.
 Linear combination for Coulomb/exchange, wScrn=  0.000000
 CW=    0.222036    0.777964
 WU=    0.000000   12.500000
 Enter PrismC: JobTyp=21 DoJE=F Cont=F.
 Linear combination for Coulomb/exchange, wScrn=  0.000000
 CW=    0.222036    0.777964
 WU=    0.000000   12.500000
 Enter PrismC: JobTyp=21 DoJE=F Cont=F.
 Linear combination for Coulomb/exchange, wScrn=  0.000000
 CW=    0.222036    0.777964
 WU=    0.000000   12.500000
 Enter PrismC: JobTyp=21 DoJE=F Cont=F.
 Linear combination for Coulomb/exchange, wScrn=  0.000000
 CW=    0.222036    0.777964
 Enter PrismC: JobTyp=21 DoJE=F Cont=F.
 Linear combination for Coulomb/exchange, wScrn=  0.000000
 CW=    0.222036    0.777964
 WU=    0.000000   12.500000
 Enter PrismC: JobTyp=21 DoJE=F Cont=F.
 Linear combination for Coulomb/exchange, wScrn=  0.000000
 CW=    0.222036    0.777964
 WU=    0.000000   12.500000
 PrismC was handed    13083547 working-precision words and  1253 shell-pairs
 Enter PrismC: JobTyp=21 DoJE=F Cont=F.
 Linear combination for Coulomb/exchange, wScrn=  0.000000
 CW=    0.222036    0.777964
 WU=    0.000000   12.500000
 Enter PrismC: JobTyp=21 DoJE=F Cont=F.
 Linear combination for Coulomb/exchange, wScrn=  0.000000
 CW=    0.222036    0.777964
 WU=    0.000000   12.500000
 Enter PrismC: JobTyp=21 DoJE=F Cont=F.
 Linear combination for Coulomb/exchange, wScrn=  0.000000
 CW=    0.222036    0.777964
 WU=    0.000000   12.500000
 Enter PrismC: JobTyp=21 DoJE=F Cont=F.
 Linear combination for Coulomb/exchange, wScrn=  0.000000
 CW=    0.222036    0.777964
 WU=    0.000000   12.500000
 Enter PrismC: JobTyp=21 DoJE=F Cont=F.
 Linear combination for Coulomb/exchange, wScrn=  0.000000
 CW=    0.222036    0.777964
 WU=    0.000000   12.500000
 Enter PrismC: JobTyp=21 DoJE=F Cont=F.
 Linear combination for Coulomb/exchange, wScrn=  0.000000
 CW=    0.222036    0.777964
 WU=    0.000000   12.500000
 Enter PrismC: JobTyp=21 DoJE=F Cont=F.
 Linear combination for Coulomb/exchange, wScrn=  0.000000
 CW=    0.222036    0.777964
 WU=    0.000000   12.500000
 PrismC was handed    13083547 working-precision words and  1253 shell-pairs
 Enter PrismC: JobTyp=21 DoJE=F Cont=F.
 Linear combination for Coulomb/exchange, wScrn=  0.000000
 CW=    0.222036    0.777964
 WU=    0.000000   12.500000
 PrismC was handed    13083547 working-precision words and  1253 shell-pairs
 PrismC was handed    13083547 working-precision words and  1253 shell-pairs
 Enter PrismC: JobTyp=21 DoJE=F Cont=F.
 Linear combination for Coulomb/exchange, wScrn=  0.000000
 CW=    0.222036    0.777964
 WU=    0.000000   12.500000
 Enter PrismC: JobTyp=21 DoJE=F Cont=F.
 Linear combination for Coulomb/exchange, wScrn=  0.000000
 CW=    0.222036    0.777964
 WU=    0.000000   12.500000
 Enter PrismC: JobTyp=21 DoJE=F Cont=F.
 Linear combination for Coulomb/exchange, wScrn=  0.000000
 CW=    0.222036    0.777964
 WU=    0.000000   12.500000
 Enter PrismC: JobTyp=21 DoJE=F Cont=F.
 Linear combination for Coulomb/exchange, wScrn=  0.000000
 CW=    0.222036    0.777964
 WU=    0.000000   12.500000
 Enter PrismC: JobTyp=21 DoJE=F Cont=F.
 Linear combination for Coulomb/exchange, wScrn=  0.000000
 CW=    0.222036    0.777964
 WU=    0.000000   12.500000
 Enter PrismC: JobTyp=21 DoJE=F Cont=F.
 Linear combination for Coulomb/exchange, wScrn=  0.000000
 CW=    0.222036    0.777964
 WU=    0.000000   12.500000
 Enter PrismC: JobTyp=21 DoJE=F Cont=F.
 Linear combination for Coulomb/exchange, wScrn=  0.000000
 CW=    0.222036    0.777964
 WU=    0.000000   12.500000
 Enter PrismC: JobTyp=21 DoJE=F Cont=F.
 Linear combination for Coulomb/exchange, wScrn=  0.000000
 CW=    0.222036    0.777964
 WU=    0.000000   12.500000
 Enter PrismC: JobTyp=21 DoJE=F Cont=F.
 Linear combination for Coulomb/exchange, wScrn=  0.000000
 CW=    0.222036    0.777964
 WU=    0.000000   12.500000
 Enter PrismC: JobTyp=21 DoJE=F Cont=F.
 Linear combination for Coulomb/exchange, wScrn=  0.000000
 CW=    0.222036    0.777964
 WU=    0.000000   12.500000
 Enter PrismC: JobTyp=21 DoJE=F Cont=F.
 Linear combination for Coulomb/exchange, wScrn=  0.000000
 CW=    0.222036    0.777964
 WU=    0.000000   12.500000
 WU=    0.000000   12.500000
 Enter PrismC: JobTyp=21 DoJE=F Cont=F.
 Linear combination for Coulomb/exchange, wScrn=  0.000000
 CW=    0.222036    0.777964
 WU=    0.000000   12.500000
 Enter PrismC: JobTyp=21 DoJE=F Cont=F.
 Linear combination for Coulomb/exchange, wScrn=  0.000000
 CW=    0.222036    0.777964
 WU=    0.000000   12.500000
 Enter PrismC: JobTyp=21 DoJE=F Cont=F.
 Linear combination for Coulomb/exchange, wScrn=  0.000000
 CW=    0.222036    0.777964
 WU=    0.000000   12.500000
 PrismC was handed    13083547 working-precision words and  1253 shell-pairs
 PrismC was handed    13083547 working-precision words and  1253 shell-pairs
 PrismC was handed    13083547 working-precision words and  1253 shell-pairs
 PrismC was handed    13083547 working-precision words and  1253 shell-pairs
 PrismC was handed    13083547 working-precision words and  1253 shell-pairs
 PrismC was handed    13083547 working-precision words and  1253 shell-pairs
 PrismC was handed    13083547 working-precision words and  1253 shell-pairs
 PrismC was handed    13083547 working-precision words and  1253 shell-pairs
 PrismC was handed    13083547 working-precision words and  1253 shell-pairs
 PrismC was handed    13083547 working-precision words and  1253 shell-pairs
 PrismC was handed    13083547 working-precision words and  1253 shell-pairs
 PrismC was handed    13083547 working-precision words and  1253 shell-pairs
 PrismC was handed    13083547 working-precision words and  1253 shell-pairs
 PrismC was handed    13083547 working-precision words and  1253 shell-pairs
 PrismC was handed    13083547 working-precision words and  1253 shell-pairs
 PrismC was handed    13083547 working-precision words and  1253 shell-pairs
 PrismC was handed    13083547 working-precision words and  1253 shell-pairs
 PrismC was handed    13083547 working-precision words and  1253 shell-pairs
 PrismC was handed    13083547 working-precision words and  1253 shell-pairs
 PrismC was handed    13083547 working-precision words and  1253 shell-pairs
 Enter PrismC: JobTyp=21 DoJE=F Cont=F.
 Linear combination for Coulomb/exchange, wScrn=  0.000000
 CW=    0.222036    0.777964
 WU=    0.000000   12.500000
 PrismC was handed    13083547 working-precision words and  1253 shell-pairs
 PrismC was handed    13083547 working-precision words and  1253 shell-pairs
 PrismC was handed    13083547 working-precision words and  1253 shell-pairs
 PrismC was handed    13083547 working-precision words and  1253 shell-pairs
 PrismC was handed    13083547 working-precision words and  1253 shell-pairs
 Enter PrismC: JobTyp=21 DoJE=F Cont=F.
 Linear combination for Coulomb/exchange, wScrn=  0.000000
 CW=    0.222036    0.777964
 WU=    0.000000   12.500000
 PrismC was handed    13083547 working-precision words and  1253 shell-pairs
 PrismC was handed    13083547 working-precision words and  1253 shell-pairs
 PrismC was handed    13083547 working-precision words and  1253 shell-pairs
 IPart= 12 NShTot=       21015 NShNF=       21015 NShFF=           0 NBatch=         272 AvBLen=        77.3
 IPart= 28 NShTot=       24653 NShNF=       24653 NShFF=           0 NBatch=         264 AvBLen=        93.4
 IPart= 31 NShTot=       25319 NShNF=       25319 NShFF=           0 NBatch=         283 AvBLen=        89.5
 IPart=  6 NShTot=       19429 NShNF=       19429 NShFF=           0 NBatch=         224 AvBLen=        86.7
 IPart= 27 NShTot=       26021 NShNF=       26021 NShFF=           0 NBatch=         220 AvBLen=       118.3
 IPart=  9 NShTot=       24624 NShNF=       24624 NShFF=           0 NBatch=         272 AvBLen=        90.5
 IPart=  1 NShTot=       20504 NShNF=       20504 NShFF=           0 NBatch=         294 AvBLen=        69.7
 IPart= 16 NShTot=       19347 NShNF=       19347 NShFF=           0 NBatch=         222 AvBLen=        87.1
 IPart= 14 NShTot=       21957 NShNF=       21957 NShFF=           0 NBatch=         298 AvBLen=        73.7
 IPart= 29 NShTot=       19691 NShNF=       19691 NShFF=           0 NBatch=         226 AvBLen=        87.1
 IPart=  5 NShTot=       21681 NShNF=       21681 NShFF=           0 NBatch=         296 AvBLen=        73.2
 IPart=  3 NShTot=       21412 NShNF=       21412 NShFF=           0 NBatch=         304 AvBLen=        70.4
 IPart= 24 NShTot=       22726 NShNF=       22726 NShFF=           0 NBatch=         298 AvBLen=        76.3
 IPart= 19 NShTot=       23589 NShNF=       23589 NShFF=           0 NBatch=         261 AvBLen=        90.4
 IPart= 30 NShTot=       22417 NShNF=       22417 NShFF=           0 NBatch=         256 AvBLen=        87.6
 IPart=  2 NShTot=       24789 NShNF=       24789 NShFF=           0 NBatch=         285 AvBLen=        87.0
 IPart= 21 NShTot=       24200 NShNF=       24200 NShFF=           0 NBatch=         211 AvBLen=       114.7
 IPart= 11 NShTot=       23899 NShNF=       23899 NShFF=           0 NBatch=         298 AvBLen=        80.2
 IPart= 23 NShTot=       21403 NShNF=       21403 NShFF=           0 NBatch=         221 AvBLen=        96.8
 IPart= 20 NShTot=       22934 NShNF=       22934 NShFF=           0 NBatch=         286 AvBLen=        80.2
 IPart= 22 NShTot=       21489 NShNF=       21489 NShFF=           0 NBatch=         302 AvBLen=        71.2
 IPart= 15 NShTot=       24038 NShNF=       24038 NShFF=           0 NBatch=         307 AvBLen=        78.3
 IPart= 13 NShTot=       21740 NShNF=       21740 NShFF=           0 NBatch=         295 AvBLen=        73.7
 IPart= 17 NShTot=       22709 NShNF=       22709 NShFF=           0 NBatch=         287 AvBLen=        79.1
 IPart= 25 NShTot=       22404 NShNF=       22404 NShFF=           0 NBatch=         222 AvBLen=       100.9
 IPart= 26 NShTot=       21395 NShNF=       21395 NShFF=           0 NBatch=         294 AvBLen=        72.8
 IPart=  8 NShTot=       22268 NShNF=       22268 NShFF=           0 NBatch=         223 AvBLen=        99.9
 IPart=  7 NShTot=       21965 NShNF=       21965 NShFF=           0 NBatch=         248 AvBLen=        88.6
 IPart= 10 NShTot=       22896 NShNF=       22896 NShFF=           0 NBatch=         230 AvBLen=        99.5
 IPart=  0 NShTot=       20032 NShNF=       20032 NShFF=           0 NBatch=         180 AvBLen=       111.3
 IPart=  4 NShTot=       21934 NShNF=       21934 NShFF=           0 NBatch=         284 AvBLen=        77.2
 IPart= 18 NShTot=       23262 NShNF=       23262 NShFF=           0 NBatch=         290 AvBLen=        80.2
 CoulSu:  NxtVal=         869506.
 ReadGW:  IGet=0 IStart=           1 Next=           1 LGW=           0.
 Remaining memory in FofDFT      399.95 Mw
 CkSvGd:  ISavGI=        -1 IRadAn=       5 IRASav=       5 ISavGd=        -1.
 CalDSu:  NPrtUS=  32 ThrOK=T IAlg=1 NPAlg=2 DoDPD=T LenP=       12090 LenD1P=             0.
 IPart=  0 IRanGd=          0 ScrnBf=T ScrnGd=T RCrit=4.00D+00 DoMicB=T.
 IPart= 28         3239 of         3666 points in       5 batches and       32 microbatches, Max-NSigAt=       5 Max-NSgAt2=       5
 IPart= 15         3694 of         4172 points in       5 batches and       20 microbatches, Max-NSigAt=       5 Max-NSgAt2=       5
 IPart= 19         3582 of         4200 points in       6 batches and       66 microbatches, Max-NSigAt=       5 Max-NSgAt2=       5
 IPart=  9         2700 of         2732 points in       2 batches and        9 microbatches, Max-NSigAt=       5 Max-NSgAt2=       5
 IPart=  8         3002 of         3184 points in       3 batches and        7 microbatches, Max-NSigAt=       5 Max-NSgAt2=       5
 IPart= 26         2620 of         2642 points in       2 batches and        6 microbatches, Max-NSigAt=       5 Max-NSgAt2=       5
 IPart=  6         2608 of         2718 points in       2 batches and       22 microbatches, Max-NSigAt=       5 Max-NSgAt2=       5
 IPart=  0         2785 of         2988 points in       3 batches and       28 microbatches, Max-NSigAt=       5 Max-NSgAt2=       5
 IPart= 22         3264 of         3548 points in       4 batches and        8 microbatches, Max-NSigAt=       5 Max-NSgAt2=       5
 IPart= 20         3067 of         3160 points in       3 batches and        7 microbatches, Max-NSigAt=       5 Max-NSgAt2=       5
 IPart= 24         3192 of         3364 points in       3 batches and        8 microbatches, Max-NSigAt=       5 Max-NSgAt2=       5
 IPart= 11         3151 of         3568 points in       4 batches and       29 microbatches, Max-NSigAt=       5 Max-NSgAt2=       5
 IPart= 17         3215 of         3568 points in       4 batches and       45 microbatches, Max-NSigAt=       5 Max-NSgAt2=       5
 IPart= 30         3264 of         3568 points in       4 batches and       43 microbatches, Max-NSigAt=       5 Max-NSgAt2=       5
 IPart= 14         3326 of         3596 points in       4 batches and       28 microbatches, Max-NSigAt=       5 Max-NSgAt2=       5
 IPart=  4         3408 of         3568 points in       4 batches and       18 microbatches, Max-NSigAt=       5 Max-NSgAt2=       5
 IPart= 27         3382 of         3552 points in       4 batches and       32 microbatches, Max-NSigAt=       5 Max-NSgAt2=       5
 IPart=  2         2997 of         3174 points in       4 batches and       28 microbatches, Max-NSigAt=       5 Max-NSgAt2=       5
 IPart=  5         3536 of         3568 points in       3 batches and       11 microbatches, Max-NSigAt=       5 Max-NSgAt2=       5
 IPart=  1         3991 of         4172 points in       4 batches and       10 microbatches, Max-NSigAt=       5 Max-NSgAt2=       5
 IPart=  3         3952 of         4066 points in       4 batches and       10 microbatches, Max-NSigAt=       5 Max-NSgAt2=       5
 IPart= 31         3716 of         3822 points in       3 batches and       12 microbatches, Max-NSigAt=       5 Max-NSgAt2=       5
 IPart= 29         3404 of         3568 points in       4 batches and       22 microbatches, Max-NSigAt=       5 Max-NSgAt2=       5
 IPart= 18         4286 of         4776 points in       5 batches and       13 microbatches, Max-NSigAt=       5 Max-NSgAt2=       5
 IPart= 13         3908 of         3912 points in       3 batches and       11 microbatches, Max-NSigAt=       5 Max-NSgAt2=       5
 IPart= 16         3340 of         3568 points in       4 batches and       31 microbatches, Max-NSigAt=       5 Max-NSgAt2=       5
 IPart= 21         3469 of         3540 points in       3 batches and       12 microbatches, Max-NSigAt=       5 Max-NSgAt2=       5
 IPart= 12         3422 of         3540 points in       3 batches and       10 microbatches, Max-NSigAt=       5 Max-NSgAt2=       5
 IPart= 25         4261 of         4804 points in       6 batches and       36 microbatches, Max-NSigAt=       5 Max-NSgAt2=       5
 IPart=  7         3882 of         4152 points in       5 batches and       36 microbatches, Max-NSigAt=       5 Max-NSgAt2=       5
 IPart= 23         3746 of         3746 points in       3 batches and       12 microbatches, Max-NSigAt=       5 Max-NSgAt2=       5
 IPart= 10         3313 of         3568 points in       4 batches and       30 microbatches, Max-NSigAt=       5 Max-NSgAt2=       5
 Forces at end of L703
 I=    0 X=   2.086122389369D-05 Y=  -1.878353001032D-03 Z=   2.840984088197D-06
 I=    1 X=  -4.736274449274D-05 Y=  -5.891174982728D-05 Z=  -3.284708494056D-05
 I=    2 X=   3.925589919022D-05 Y=  -1.103105290376D-06 Z=  -6.178567921733D-05
 I=    3 X=  -4.164959650854D-05 Y=  -1.945171049511D-07 Z=   6.759997095807D-05
 I=    4 X=   5.003949442184D-05 Y=   1.137503073362D-06 Z=   2.715267037079D-05
 I=    5 X=  -2.830526042692D-07 Y=   5.907186914950D-05 Z=  -1.198771689922D-07
 FrcOut:
 IF    =    36 IFX   =    51 IFXYZ =    66
 IFFX  =    81 IFFFX =   201 IFLen =    15
 IFFLen=   120 IFFFLn=     0 IEDerv=   201
 LEDerv=   773 IFroze=  1163 ICStrt= 39591
 FCEst1:  Generated internal coordinate force constants:
                1             2             3             4             5 
      1  0.721128D+00
      2  0.593810D-03  0.217823D+00
      3  0.171626D-03  0.271718D-03  0.720960D+00
      4 -0.115763D+00  0.882932D-04 -0.780672D-04  0.771658D-01
      5  0.884708D-04 -0.710136D-01  0.105447D-01 -0.117538D-03  0.493814D-01
      6  0.000000D+00  0.000000D+00 -0.362127D+00  0.000000D+00  0.000000D+00
      7 -0.300675D+00  0.649661D-04  0.106643D+00  0.192749D-01 -0.121141D-04
      8  0.919969D-02 -0.710326D-01 -0.515510D-02 -0.242487D-04  0.108403D-01
      9  0.106558D+00  0.112651D-03 -0.177208D+00  0.334226D-01 -0.210059D-04
     10 -0.300441D+00 -0.753397D-03 -0.106702D+00  0.193032D-01  0.407608D-04
     11 -0.988409D-02 -0.711444D-01 -0.566320D-02  0.530879D-04  0.108406D-01
     12 -0.106695D+00 -0.387186D-03 -0.177435D+00 -0.334063D-01 -0.133539D-03
     13 -0.424848D-02  0.632757D-05 -0.343693D-04  0.195367D-04  0.000000D+00
     14  0.212299D-05 -0.463231D-02  0.186914D-05  0.000000D+00 -0.487073D-04
     15 -0.343552D-04  0.281646D-05 -0.419004D-02  0.617655D-04 -0.103902D-01
                6             7             8             9            10 
      6  0.362127D+00
      7  0.000000D+00  0.291007D+00
      8  0.000000D+00 -0.795590D-04  0.493809D-01
      9  0.000000D+00 -0.123322D+00 -0.137955D-03  0.148286D+00
     10  0.000000D+00 -0.964354D-02 -0.953682D-04 -0.167219D-01  0.290794D+00
     11  0.000000D+00  0.265359D-04  0.108406D-01  0.460132D-04  0.808168D-03
     12  0.000000D+00  0.166889D-01  0.102045D-03  0.289386D-01  0.123443D+00
     13  0.000000D+00  0.364775D-04 -0.900051D-02  0.632519D-04 -0.128641D-04
     14  0.000000D+00  0.000000D+00 -0.292163D-04  0.000000D+00  0.000000D+00
     15  0.000000D+00 -0.979270D-05  0.519101D-02 -0.169805D-04 -0.187534D-04
               11            12            13            14            15 
     11  0.493853D-01
     12  0.418849D-03  0.148495D+00
     13  0.899630D-02 -0.300185D-04  0.420533D-02
     14  0.778972D-04  0.000000D+00 -0.253546D-05  0.463234D-02
     15  0.519834D-02  0.224508D-05  0.113586D-05 -0.199780D-05  0.420478D-02
 Quadrupole    = 4.86854722D-01-9.73401795D-01 4.86547073D-01
                 2.81805882D-03 6.49887928D-04 1.72579956D-03
 -------------------------------------------------------------------
 Center     Atomic                   Forces (Hartrees/Bohr)
 Number     Number              X              Y              Z
 -------------------------------------------------------------------
      1        6           0.000047363    0.000058912    0.000032847
      2        1          -0.000039256    0.000001103    0.000061786
      3        1           0.000041650    0.000000195   -0.000067600
      4        1          -0.000050039   -0.000001138   -0.000027153
      5        1           0.000000283   -0.000059072    0.000000120
 -------------------------------------------------------------------
 Cartesian Forces:  Max     0.000067600 RMS     0.000040979
 From PutF, contents of force:
   1    0.5171576253D-06
   2    0.1187143754D-05
   3    0.5691432418D-04
   4    0.7692084615D-04
   5   -0.3111625213D-05
   6   -0.1710289955D-05
   7    0.6985121893D-04
   8    0.6178567922D-04
   9    0.5907242053D-04
 -----------------------------------------------------------------------------------------------
                       Internal Coordinate Forces (Hartree/Bohr or radian)
  Cent   Atom   N1       Length/X         N2         Alpha/Y        N3         Beta/Z          J
 -----------------------------------------------------------------------------------------------
      1  C 
      2  H        1   0.000062(     1)
      3  H        1   0.000070(     2)      2   0.000077(     5)
      4  H        1   0.000057(     3)      2  -0.000003(     6)      3  -0.000002(     8)     0
      5  H        1   0.000059(     4)      2   0.000001(     7)      3   0.000001(     9)     0
 -----------------------------------------------------------------------------------------------
 Internal  Forces:  Max     0.000076921 RMS     0.000048713
 Force constants in Cartesian coordinates: 
                1             2             3             4             5 
      1  0.721128D+00
      2  0.593810D-03  0.217823D+00
      3  0.171626D-03  0.271718D-03  0.720960D+00
      4 -0.115763D+00  0.882932D-04 -0.780672D-04  0.771658D-01
      5  0.884708D-04 -0.710136D-01  0.105447D-01 -0.117538D-03  0.493814D-01
      6  0.000000D+00  0.000000D+00 -0.362127D+00  0.000000D+00  0.000000D+00
      7 -0.300675D+00  0.649661D-04  0.106643D+00  0.192749D-01 -0.121141D-04
      8  0.919969D-02 -0.710326D-01 -0.515510D-02 -0.242487D-04  0.108403D-01
      9  0.106558D+00  0.112651D-03 -0.177208D+00  0.334226D-01 -0.210059D-04
     10 -0.300441D+00 -0.753397D-03 -0.106702D+00  0.193032D-01  0.407608D-04
     11 -0.988409D-02 -0.711444D-01 -0.566320D-02  0.530879D-04  0.108406D-01
     12 -0.106695D+00 -0.387186D-03 -0.177435D+00 -0.334063D-01 -0.133539D-03
     13 -0.424848D-02  0.632757D-05 -0.343693D-04  0.195367D-04  0.000000D+00
     14  0.212299D-05 -0.463231D-02  0.186914D-05  0.000000D+00 -0.487073D-04
     15 -0.343552D-04  0.281646D-05 -0.419004D-02  0.617655D-04 -0.103902D-01
                6             7             8             9            10 
      6  0.362127D+00
      7  0.000000D+00  0.291007D+00
      8  0.000000D+00 -0.795590D-04  0.493809D-01
      9  0.000000D+00 -0.123322D+00 -0.137955D-03  0.148286D+00
     10  0.000000D+00 -0.964354D-02 -0.953682D-04 -0.167219D-01  0.290794D+00
     11  0.000000D+00  0.265359D-04  0.108406D-01  0.460132D-04  0.808168D-03
     12  0.000000D+00  0.166889D-01  0.102045D-03  0.289386D-01  0.123443D+00
     13  0.000000D+00  0.364775D-04 -0.900051D-02  0.632519D-04 -0.128641D-04
     14  0.000000D+00  0.000000D+00 -0.292163D-04  0.000000D+00  0.000000D+00
     15  0.000000D+00 -0.979270D-05  0.519101D-02 -0.169805D-04 -0.187534D-04
               11            12            13            14            15 
     11  0.493853D-01
     12  0.418849D-03  0.148495D+00
     13  0.899630D-02 -0.300185D-04  0.420533D-02
     14  0.778972D-04  0.000000D+00 -0.253546D-05  0.463234D-02
     15  0.519834D-02  0.224508D-05  0.113586D-05 -0.199780D-05  0.420478D-02
 FCInt: Cartesian first derivatives: 
                 1             2             3             4             5 
      1   0.000000D+00  0.000000D+00  0.000000D+00  0.000000D+00  0.000000D+00
      2   0.000000D+00  0.000000D+00  0.000000D+00  0.000000D+00  0.000000D+00
      3   0.000000D+00  0.000000D+00  0.000000D+00  0.000000D+00  0.000000D+00
 FCInt: Cartesian force constants: 
                1             2             3             4             5 
      1  0.721128D+00
      2  0.593810D-03  0.217823D+00
      3  0.171626D-03  0.271718D-03  0.720960D+00
      4 -0.115763D+00  0.882932D-04 -0.780672D-04  0.771658D-01
      5  0.884708D-04 -0.710136D-01  0.105447D-01 -0.117538D-03  0.493814D-01
      6  0.000000D+00  0.000000D+00 -0.362127D+00  0.000000D+00  0.000000D+00
      7 -0.300675D+00  0.649661D-04  0.106643D+00  0.192749D-01 -0.121141D-04
      8  0.919969D-02 -0.710326D-01 -0.515510D-02 -0.242487D-04  0.108403D-01
      9  0.106558D+00  0.112651D-03 -0.177208D+00  0.334226D-01 -0.210059D-04
     10 -0.300441D+00 -0.753397D-03 -0.106702D+00  0.193032D-01  0.407608D-04
     11 -0.988409D-02 -0.711444D-01 -0.566320D-02  0.530879D-04  0.108406D-01
     12 -0.106695D+00 -0.387186D-03 -0.177435D+00 -0.334063D-01 -0.133539D-03
     13 -0.424848D-02  0.632757D-05 -0.343693D-04  0.195367D-04  0.000000D+00
     14  0.212299D-05 -0.463231D-02  0.186914D-05  0.000000D+00 -0.487073D-04
     15 -0.343552D-04  0.281646D-05 -0.419004D-02  0.617655D-04 -0.103902D-01
                6             7             8             9            10 
      6  0.362127D+00
      7  0.000000D+00  0.291007D+00
      8  0.000000D+00 -0.795590D-04  0.493809D-01
      9  0.000000D+00 -0.123322D+00 -0.137955D-03  0.148286D+00
     10  0.000000D+00 -0.964354D-02 -0.953682D-04 -0.167219D-01  0.290794D+00
     11  0.000000D+00  0.265359D-04  0.108406D-01  0.460132D-04  0.808168D-03
     12  0.000000D+00  0.166889D-01  0.102045D-03  0.289386D-01  0.123443D+00
     13  0.000000D+00  0.364775D-04 -0.900051D-02  0.632519D-04 -0.128641D-04
     14  0.000000D+00  0.000000D+00 -0.292163D-04  0.000000D+00  0.000000D+00
     15  0.000000D+00 -0.979270D-05  0.519101D-02 -0.169805D-04 -0.187534D-04
               11            12            13            14            15 
     11  0.493853D-01
     12  0.418849D-03  0.148495D+00
     13  0.899630D-02 -0.300185D-04  0.420533D-02
     14  0.778972D-04  0.000000D+00 -0.253546D-05  0.463234D-02
     15  0.519834D-02  0.224508D-05  0.113586D-05 -0.199780D-05  0.420478D-02
 Internal force constants: 
                1             2             3             4             5 
      1  0.362127D+00
      2  0.000000D+00  0.362127D+00
      3  0.000000D+00  0.000000D+00  0.362127D+00
      4  0.000000D+00  0.000000D+00  0.000000D+00  0.463237D-02
      5  0.000000D+00  0.000000D+00  0.000000D+00  0.000000D+00  0.320349D+00
      6  0.000000D+00  0.000000D+00  0.000000D+00  0.000000D+00  0.160170D+00
      7  0.000000D+00  0.000000D+00  0.000000D+00  0.000000D+00 -0.301898D-03
      8  0.000000D+00  0.000000D+00  0.000000D+00  0.000000D+00 -0.423923D-03
      9  0.000000D+00  0.000000D+00  0.000000D+00  0.000000D+00  0.112455D-02
                6             7             8             9 
      6  0.320344D+00
      7  0.399349D-04  0.240248D+00
      8 -0.179524D-04 -0.693217D-01  0.153692D+00
      9 -0.533959D-03  0.642196D-04 -0.119969D+00  0.240274D+00
 Frcnst in PutFF: 
                1             2             3             4             5 
      1  0.240274D+00
      2  0.642196D-04  0.240248D+00
      3  0.000000D+00  0.000000D+00  0.362127D+00
      4  0.112455D-02 -0.301898D-03  0.000000D+00  0.320349D+00
      5 -0.533959D-03  0.399349D-04  0.000000D+00  0.160170D+00  0.320344D+00
      6 -0.119969D+00 -0.693217D-01  0.000000D+00 -0.423923D-03 -0.179524D-04
      7  0.000000D+00  0.000000D+00  0.000000D+00  0.000000D+00  0.000000D+00
      8  0.000000D+00  0.000000D+00  0.000000D+00  0.000000D+00  0.000000D+00
      9  0.000000D+00  0.000000D+00  0.000000D+00  0.000000D+00  0.000000D+00
                6             7             8             9 
      6  0.153692D+00
      7  0.000000D+00  0.362127D+00
      8  0.000000D+00  0.000000D+00  0.362127D+00
      9  0.000000D+00  0.000000D+00  0.000000D+00  0.463237D-02
 Force constants in internal coordinates: 
                1             2             3             4             5 
      1  0.362127D+00
      2  0.000000D+00  0.362127D+00
      3  0.000000D+00  0.000000D+00  0.362127D+00
      4  0.000000D+00  0.000000D+00  0.000000D+00  0.463237D-02
      5  0.000000D+00  0.000000D+00  0.000000D+00  0.000000D+00  0.320349D+00
      6  0.000000D+00  0.000000D+00  0.000000D+00  0.000000D+00  0.160170D+00
      7  0.000000D+00  0.000000D+00  0.000000D+00  0.000000D+00 -0.301898D-03
      8  0.000000D+00  0.000000D+00  0.000000D+00  0.000000D+00 -0.423923D-03
      9  0.000000D+00  0.000000D+00  0.000000D+00  0.000000D+00  0.112455D-02
                6             7             8             9 
      6  0.320344D+00
      7  0.399349D-04  0.240248D+00
      8 -0.179524D-04 -0.693217D-01  0.153692D+00
      9 -0.533959D-03  0.642196D-04 -0.119969D+00  0.240274D+00
 Final forces over variables, Energy=-4.03417761D+01:
  5.17157625D-07 1.18714375D-06 5.69143242D-05 7.69208462D-05
 -3.11162521D-06-1.71028996D-06 6.98512189D-05 6.17856792D-05
  5.90724205D-05

 GradGradGradGradGradGradGradGradGradGradGradGradGradGradGradGradGradGrad
 Berny optimization.
 Search for a local minimum.
 Step number   1 out of a maximum of   50
 All quantities printed in internal units (Hartrees-Bohrs-Radians)
 Second derivative matrix not updated -- first step.
 The second derivative matrix:
                         BABS1     AABS1      R3        A2        A3
           BABS1        0.24027
           AABS1        0.00006   0.24025
           R3          -0.00000  -0.00000   0.36213
           A2           0.00112  -0.00030  -0.00000   0.32035
           A3          -0.00053   0.00004  -0.00000   0.16017   0.32034
           D3          -0.11997  -0.06932   0.00000  -0.00042  -0.00002
           R2           0.00000  -0.00000  -0.00000   0.00000   0.00000
           R1           0.00000   0.00000   0.00000   0.00000   0.00000
           RTS          0.00000  -0.00000  -0.00000   0.00000   0.00000
                          D3        R2        R1        RTS
           D3           0.15369
           R2          -0.00000   0.36213
           R1           0.00000   0.00000   0.36213
           RTS         -0.00000   0.00000   0.00000   0.00463
 ITU=  0
     Eigenvalues ---    0.24020   0.240331000.000001000.000001000.00000
     Eigenvalues --- 1000.000001000.000001000.000001000.00000
 RFO step:  Lambda= 0.00000000D+00 EMin= 2.40195602D-01
 Linear search not attempted -- first point.
 Variable       Old X    -DE/DX   Delta X   Delta X   Delta X     New X
                                 (Linear)    (Quad)   (Total)
  BABS1       1.56485   0.00000   0.00000   0.00000   0.00000   1.56485
  AABS1       1.56611   0.00000   0.00000   0.00000   0.00000   1.56611
    R3        2.03750   0.00006   0.00000   0.00000   0.00000   2.03750
    A2        2.09391   0.00008   0.00000   0.00000   0.00000   2.09391
    A3        2.09476  -0.00000   0.00000   0.00000   0.00000   2.09476
    D3        3.13823  -0.00000   0.00000   0.00000   0.00000   3.13823
    R2        2.03750   0.00007   0.00000   0.00000   0.00000   2.03750
    R1        2.03750   0.00006   0.00000   0.00000   0.00000   2.03750
   RTS        7.55890   0.00006   0.00000   0.00000   0.00000   7.55890
         Item               Value     Threshold  Converged?
 Maximum Force            0.000001     0.000450     YES
 RMS     Force            0.000001     0.000300     YES
 Maximum Displacement     0.000005     0.001800     YES
 RMS     Displacement     0.000002     0.001200     YES
 Predicted change in Energy=-3.488905D-12
 Optimization completed.
    -- Stationary point found.
                       ----------------------------
                       !   Optimized Parameters   !
                       ! (Angstroms and Degrees)  !
 ----------------------                            ----------------------
 !      Name          Value   Derivative information (Atomic Units)     !
 ------------------------------------------------------------------------
 !      BABS1       89.6591   -DE/DX =    0.0                           !
 !      AABS1       89.7314   -DE/DX =    0.0                           !
 !       R3          1.0782   -DE/DX =    0.0001                        !
 !       A2        119.9721   -DE/DX =    0.0001                        !
 !       A3        120.0207   -DE/DX =    0.0                           !
 !       D3        179.8076   -DE/DX =    0.0                           !
 !       R2          1.0782   -DE/DX =    0.0001                        !
 !       R1          1.0782   -DE/DX =    0.0001                        !
 !       RTS         4.0      -DE/DX =    0.0001                        !
 ------------------------------------------------------------------------
 GradGradGradGradGradGradGradGradGradGradGradGradGradGradGradGradGradGrad

 ---------------------------------------------------------------------------------------------------
                            Z-MATRIX (ANGSTROMS AND DEGREES)
   CD    Cent   Atom    N1       Length/X        N2       Alpha/Y        N3        Beta/Z          J
 ---------------------------------------------------------------------------------------------------
      1      1  C 
      2      2  H        1   1.078200(     1)
      3      3  H        1   1.078200(     2)      2  119.972(     5)
      4      4  H        1   1.078200(     3)      2  120.021(     6)      3  179.808(     8)      0
      5      5  H        1   4.000000(     4)      2   89.731(     7)      3   89.659(     9)      0
 ---------------------------------------------------------------------------------------------------
                         Z-Matrix orientation:                         
 ---------------------------------------------------------------------
 Center     Atomic      Atomic             Coordinates (Angstroms)
 Number     Number       Type             X           Y           Z
 ---------------------------------------------------------------------
      1          6           0        0.000000    0.000000    0.000000
      2          1           0        0.000000    0.000000    1.078200
      3          1           0        0.934011    0.000000   -0.538645
      4          1           0       -0.933548   -0.003135   -0.539437
      5          1           0        0.023799   -3.999885    0.018752
 ---------------------------------------------------------------------
                    Distance matrix (angstroms):
                    1          2          3          4          5
     1  C    0.000000
     2  H    1.078200   0.000000
     3  H    1.078200   1.867235   0.000000
     4  H    1.078200   1.867692   1.867562   0.000000
     5  H    4.000000   4.137883   4.139838   4.147542   0.000000
 Symmetry turned off by external request.
 Stoichiometry    CH4
 Framework group  C1[X(CH4)]
 Deg. of freedom     9
 Full point group                 C1      NOp   1
 Rotational constants (GHZ):    143.7872637     29.9628528     29.9611454

 Test job not archived.
 1\1\GINC-NODE-6-11\POpt\UwB97XD\Aug-CC-pVTZ\C1H4\CAVALLOTTI\03-Jun-202
 3\1\\# uwb97xd/aug-cc-pvtz opt=(noeig,intern,maxcyc=50) # int=ultrafin
 e nosym iop(7/33=1) guess=(mix,always)\\geom 0\\0,1\C\H,1,R1\H,1,R2,2,
 A2\H,1,R3,2,A3,3,D3,0\H,1,RTS,2,AABS1,3,BABS1,0\\BABS1=89.6591\AABS1=8
 9.7314\R3=1.0782\A2=119.9721\A3=120.0207\D3=179.8076\R2=1.0782\R1=1.07
 82\RTS=4.\\Version=EM64L-G09RevD.01\HF=-40.3417761\S2=1.00243\S2-1=0.\
 S2A=0.031758\RMSD=7.038e-09\RMSF=4.098e-05\Dipole=0.0000209,-0.0018784
 ,0.0000028\Quadrupole=0.4868547,-0.9734018,0.4865471,0.0028181,0.00064
 99,0.0017258\PG=C01 [X(C1H4)]\\@


 HICKORY, DICKORY, DOCK
 TWO MICE RAN UP THE CLOCK
 THE CLOCK STRUCK ONE...
 THE OTHER ESCAPED WITH MINOR INJURIES.
 Job cpu time:       0 days  0 hours  1 minutes 38.7 seconds.
 File lengths (MBytes):  RWF=     66 Int=      0 D2E=      0 Chk=      3 Scr=      1
 Normal termination of Gaussian 09 at Sat Jun  3 09:00:23 2023.
