 Entering Gaussian System, Link 0=g09
 Input=geom.com
 Output=geom.log
 Initial command:
 /software/cinetica/g09d1/g09d01/d01/build-node-6-2-59348/src/main/l1.exe "/scratch/cc/140692/Gau-72042.inp" -scrdir="/scratch/cc/140692/"
 Entering Link 1 = /software/cinetica/g09d1/g09d01/d01/build-node-6-2-59348/src/main/l1.exe PID=     72043.
  
 Copyright (c) 1988,1990,1992,1993,1995,1998,2003,2009,2013,
            Gaussian, Inc.  All Rights Reserved.
  
 This is part of the Gaussian(R) 09 program.  It is based on
 the Gaussian(R) 03 system (copyright 2003, Gaussian, Inc.),
 the Gaussian(R) 98 system (copyright 1998, Gaussian, Inc.),
 the Gaussian(R) 94 system (copyright 1995, Gaussian, Inc.),
 the Gaussian 92(TM) system (copyright 1992, Gaussian, Inc.),
 the Gaussian 90(TM) system (copyright 1990, Gaussian, Inc.),
 the Gaussian 88(TM) system (copyright 1988, Gaussian, Inc.),
 the Gaussian 86(TM) system (copyright 1986, Carnegie Mellon
 University), and the Gaussian 82(TM) system (copyright 1983,
 Carnegie Mellon University). Gaussian is a federally registered
 trademark of Gaussian, Inc.
  
 This software contains proprietary and confidential information,
 including trade secrets, belonging to Gaussian, Inc.
  
 This software is provided under written license and may be
 used, copied, transmitted, or stored only in accord with that
 written license.
  
 The following legend is applicable only to US Government
 contracts under FAR:
  
                    RESTRICTED RIGHTS LEGEND
  
 Use, reproduction and disclosure by the US Government is
 subject to restrictions as set forth in subparagraphs (a)
 and (c) of the Commercial Computer Software - Restricted
 Rights clause in FAR 52.227-19.
  
 Gaussian, Inc.
 340 Quinnipiac St., Bldg. 40, Wallingford CT 06492
  
  
 ---------------------------------------------------------------
 Warning -- This program may not be used in any manner that
 competes with the business of Gaussian, Inc. or will provide
 assistance to any competitor of Gaussian, Inc.  The licensee
 of this program is prohibited from giving any competitor of
 Gaussian, Inc. access to this program.  By using this program,
 the user acknowledges that Gaussian, Inc. is engaged in the
 business of creating and licensing software in the field of
 computational chemistry and represents and warrants to the
 licensee that it is not a competitor of Gaussian, Inc. and that
 it will not use this program in any manner prohibited above.
 ---------------------------------------------------------------
  

 Cite this work as:
 Gaussian 09, Revision D.01,
 M. J. Frisch, G. W. Trucks, H. B. Schlegel, G. E. Scuseria, 
 M. A. Robb, J. R. Cheeseman, G. Scalmani, V. Barone, B. Mennucci, 
 G. A. Petersson, H. Nakatsuji, M. Caricato, X. Li, H. P. Hratchian, 
 A. F. Izmaylov, J. Bloino, G. Zheng, J. L. Sonnenberg, M. Hada, 
 M. Ehara, K. Toyota, R. Fukuda, J. Hasegawa, M. Ishida, T. Nakajima, 
 Y. Honda, O. Kitao, H. Nakai, T. Vreven, J. A. Montgomery, Jr., 
 J. E. Peralta, F. Ogliaro, M. Bearpark, J. J. Heyd, E. Brothers, 
 K. N. Kudin, V. N. Staroverov, T. Keith, R. Kobayashi, J. Normand, 
 K. Raghavachari, A. Rendell, J. C. Burant, S. S. Iyengar, J. Tomasi, 
 M. Cossi, N. Rega, J. M. Millam, M. Klene, J. E. Knox, J. B. Cross, 
 V. Bakken, C. Adamo, J. Jaramillo, R. Gomperts, R. E. Stratmann, 
 O. Yazyev, A. J. Austin, R. Cammi, C. Pomelli, J. W. Ochterski, 
 R. L. Martin, K. Morokuma, V. G. Zakrzewski, G. A. Voth, 
 P. Salvador, J. J. Dannenberg, S. Dapprich, A. D. Daniels, 
 O. Farkas, J. B. Foresman, J. V. Ortiz, J. Cioslowski, 
 and D. J. Fox, Gaussian, Inc., Wallingford CT, 2013.
 
 ******************************************
 Gaussian 09:  EM64L-G09RevD.01 24-Apr-2013
                 3-Jun-2023 
 ******************************************
 %mem=400MW
 %chk=tmp
 %NProcShared= 32
 Will use up to   32 processors via shared memory.
 ----------------------------------------------------------------------
 # uwb97xd/aug-cc-pvtz opt=(noeig,intern,maxcyc=50) # int=ultrafine nos
 ym freq iop(7/33=1) guess=(mix,always)
 ----------------------------------------------------------------------
 1/6=50,10=7,11=1,14=-1,18=40,26=4,38=1/1,3;
 2/12=2,15=1,17=6,18=5,29=3,40=1/2;
 3/5=16,6=1,7=10,11=2,16=1,25=1,30=1,71=1,74=-58,75=-5,116=2/1,2,3;
 4/13=-1/1;
 5/5=2,38=5/2;
 6/7=2,8=2,9=2,10=2,28=1/1;
 7/29=1,30=1,33=1/1,2,3,16;
 1/6=50,10=7,11=1,14=-1,18=40,26=4/3(2);
 2/15=1,29=3/2;
 99//99;
 2/15=1,29=3/2;
 3/5=16,6=1,7=10,11=2,16=1,25=1,30=1,71=1,74=-58,75=-5,116=2/1,2,3;
 4/13=-1/1;
 5/5=2,38=5/2;
 7/30=1,33=1/1,2,3,16;
 1/6=50,11=1,14=-1,18=40,26=4/3(-5);
 2/15=1,29=3/2;
 6/7=2,8=2,9=2,10=2,19=2,28=1/1;
 99/9=1/99;
 ------
 geom 0
 ------
 Symbolic Z-matrix:
 Charge =  0 Multiplicity = 1
 C1
 H2                   C1   R1
 H3                   C1   R2       H2   A2
 H4                   C1   R3       H2   A3       H3   D3       0
 H21                  C1   BB       H2   ANG1     H3   DH1      0
       Variables:
  R1                    1.0791                   
  R2                    1.0791                   
  R3                    1.0791                   
  A2                  117.1143                   
  A3                  117.1221                   
  D3                  213.1119                   
  DH1                 106.5501                   
  ANG1                 99.8829                   
       Constants:
  BB                    4.                       
 

 GradGradGradGradGradGradGradGradGradGradGradGradGradGradGradGradGradGrad
 Berny optimization.
 Initialization pass.
                       ----------------------------
                       !    Initial Parameters    !
                       ! (Angstroms and Degrees)  !
 ----------------------                            ----------------------
 !      Name          Value   Derivative information (Atomic Units)     !
 ------------------------------------------------------------------------
 !       R1          1.0791   estimate D2E/DX2                          !
 !       R2          1.0791   estimate D2E/DX2                          !
 !       R3          1.0791   estimate D2E/DX2                          !
 !       A2        117.1143   estimate D2E/DX2                          !
 !       A3        117.1221   estimate D2E/DX2                          !
 !       D3        213.1119   estimate D2E/DX2                          !
 !       DH1       106.5501   estimate D2E/DX2                          !
 !      ANG1        99.8829   estimate D2E/DX2                          !
 !       BB          4.0      Frozen                                    !
 ------------------------------------------------------------------------
 Trust Radius=3.00D-01 FncErr=1.00D-07 GrdErr=1.00D-06
 Number of steps in this run=     50 maximum allowed number of steps=    100.
 GradGradGradGradGradGradGradGradGradGradGradGradGradGradGradGradGradGrad

 ---------------------------------------------------------------------------------------------------
                            Z-MATRIX (ANGSTROMS AND DEGREES)
   CD    Cent   Atom    N1       Length/X        N2       Alpha/Y        N3        Beta/Z          J
 ---------------------------------------------------------------------------------------------------
      1      1  C 
      2      2  H        1   1.079100(     1)
      3      3  H        1   1.079100(     2)      2  117.114(     5)
      4      4  H        1   1.079100(     3)      2  117.122(     6)      3  213.112(     8)      0
      5      5  H        1   4.000000(     4)      2   99.883(     7)      3  106.550(     9)      0
 ---------------------------------------------------------------------------------------------------
                         Z-Matrix orientation:                         
 ---------------------------------------------------------------------
 Center     Atomic      Atomic             Coordinates (Angstroms)
 Number     Number       Type             X           Y           Z
 ---------------------------------------------------------------------
      1          6           0        0.000000    0.000000    0.000000
      2          1           0        0.000000    0.000000    1.079100
      3          1           0        0.960506    0.000000   -0.491818
      4          1           0       -0.804469    0.524665   -0.491949
      5          1           0       -1.122506   -3.777386   -0.686540
 ---------------------------------------------------------------------
                    Distance matrix (angstroms):
                    1          2          3          4          5
     1  C    0.000000
     2  H    1.079100   0.000000
     3  H    1.079100   1.841292   0.000000
     4  H    1.079100   1.841369   1.841306   0.000000
     5  H    4.000000   4.318119   4.318043   4.318177   0.000000
 Symmetry turned off by external request.
 Stoichiometry    CH4
 Framework group  C1[X(CH4)]
 Deg. of freedom     9
 Full point group                 C1      NOp   1
 Rotational constants (GHZ):    147.9014650     29.4070264     29.4067276
 Standard basis: Aug-CC-pVTZ (5D, 7F)
   138 basis functions,   180 primitive gaussians,   155 cartesian basis functions
     5 alpha electrons        5 beta electrons
       nuclear repulsion energy        10.8505559241 Hartrees.
 NAtoms=    5 NActive=    5 NUniq=    5 SFac= 1.00D+00 NAtFMM=   60 NAOKFM=F Big=F
 Integral buffers will be    131072 words long.
 Raffenetti 2 integral format.
 Two-electron integral symmetry is turned off.
 Nuclear repulsion after empirical dispersion term =       10.8502466296 Hartrees.
 One-electron integrals computed using PRISM.
 NBasis=   138 RedAO= T EigKep=  1.11D-04  NBF=   138
 NBsUse=   138 1.00D-06 EigRej= -1.00D+00 NBFU=   138
 ExpMin= 2.53D-02 ExpMax= 8.24D+03 ExpMxC= 2.81D+02 IAcc=3 IRadAn=         5 AccDes= 0.00D+00
 Harris functional with IExCor= 4639 and IRadAn=       5 diagonalized for initial guess.
 HarFok:  IExCor= 4639 AccDes= 0.00D+00 IRadAn=         5 IDoV= 1 UseB2=F ITyADJ=14
 ICtDFT=  3500011 ScaDFX=  1.000000  1.000000  1.000000  1.000000
 FoFCou: FMM=F IPFlag=           0 FMFlag=      100000 FMFlg1=           0
         NFxFlg=           0 DoJE=T BraDBF=F KetDBF=T FulRan=T
         wScrn=  0.000000 ICntrl=     500 IOpCl=  0 I1Cent=   200000004 NGrid=           0
         NMat0=    1 NMatS0=      1 NMatT0=    0 NMatD0=    1 NMtDS0=    0 NMtDT0=    0
 Symmetry not used in FoFCou.
 Mixing orbitals, IMix= 1 IMixAn=  0 NRI=1 NE=    5 Coef=  7.07106781D-01  7.07106781D-01
 Mixing orbitals, IMix= 1 IMixAn=  0 NRI=1 NE=    5 Coef= -7.07106781D-01  7.07106781D-01
 Initial guess <Sx>= 0.0000 <Sy>= 0.0000 <Sz>= 0.0000 <S**2>= 1.0000 S= 0.6180
 Keep R1 and R2 ints in memory in canonical form, NReq=186088063.
 Requested convergence on RMS density matrix=1.00D-08 within 128 cycles.
 Requested convergence on MAX density matrix=1.00D-06.
 Requested convergence on             energy=1.00D-06.
 No special actions if energy rises.
 SCF Done:  E(UwB97XD) =  -40.3398111471     A.U. after   11 cycles
            NFock= 11  Conv=0.75D-08     -V/T= 2.0067
 <Sx>= 0.0000 <Sy>= 0.0000 <Sz>= 0.0000 <S**2>= 1.0019 S= 0.6189
 <L.S>=  0.00000000000    
 Annihilation of the first spin contaminant:
 S**2 before annihilation     1.0019,   after     0.0287

 **********************************************************************

            Population analysis using the SCF density.

 **********************************************************************

 Alpha  occ. eigenvalues --  -10.29680  -0.78839  -0.50551  -0.50550  -0.32391
 Alpha virt. eigenvalues --    0.03513   0.05206   0.05207   0.10945   0.13437
 Alpha virt. eigenvalues --    0.13437   0.13517   0.13738   0.20407   0.20407
 Alpha virt. eigenvalues --    0.23639   0.24459   0.24460   0.32990   0.32990
 Alpha virt. eigenvalues --    0.33200   0.34589   0.34654   0.37765   0.37765
 Alpha virt. eigenvalues --    0.38083   0.39828   0.39828   0.44027   0.47023
 Alpha virt. eigenvalues --    0.47023   0.49010   0.49011   0.53741   0.60041
 Alpha virt. eigenvalues --    0.61215   0.61215   0.67815   0.75351   0.75352
 Alpha virt. eigenvalues --    0.80289   0.80289   0.81713   0.85641   0.90647
 Alpha virt. eigenvalues --    0.92061   0.92061   0.94466   0.94900   0.94900
 Alpha virt. eigenvalues --    1.02992   1.03088   1.03090   1.03490   1.06582
 Alpha virt. eigenvalues --    1.06783   1.06785   1.12421   1.12422   1.17056
 Alpha virt. eigenvalues --    1.17056   1.18354   1.18356   1.21218   1.25494
 Alpha virt. eigenvalues --    1.37339   1.37340   1.47760   1.47761   1.49786
 Alpha virt. eigenvalues --    1.50876   1.50876   1.51589   1.54696   1.54696
 Alpha virt. eigenvalues --    1.54809   1.60033   1.72105   1.74576   1.74577
 Alpha virt. eigenvalues --    1.90039   1.90041   1.90691   2.03220   2.03223
 Alpha virt. eigenvalues --    2.07579   2.72490   2.77353   2.77353   2.91968
 Alpha virt. eigenvalues --    3.06088   3.06089   3.28102   3.33209   3.35280
 Alpha virt. eigenvalues --    3.35282   3.37767   3.38416   3.38417   3.44663
 Alpha virt. eigenvalues --    3.47095   3.47097   3.72813   3.72880   3.72880
 Alpha virt. eigenvalues --    3.74883   3.94442   3.94443   4.16671   4.17119
 Alpha virt. eigenvalues --    4.17122   4.40958   4.44298   4.44299   4.45422
 Alpha virt. eigenvalues --    4.45422   4.47673   4.47673   4.49237   4.64750
 Alpha virt. eigenvalues --    4.64751   4.70152   4.74505   4.74505   4.79812
 Alpha virt. eigenvalues --    4.84342   4.99777   4.99783   5.05514   5.05515
 Alpha virt. eigenvalues --    5.20970   5.47573   5.47579   5.86348   5.92288
 Alpha virt. eigenvalues --    6.18295   6.18302  15.92941
  Beta  occ. eigenvalues --  -10.28531  -0.74516  -0.49265  -0.49264  -0.40158
  Beta virt. eigenvalues --   -0.00856   0.03996   0.05403   0.05403   0.06467
  Beta virt. eigenvalues --    0.13204   0.13204   0.13432   0.14292   0.19502
  Beta virt. eigenvalues --    0.19502   0.20757   0.20757   0.21242   0.26442
  Beta virt. eigenvalues --    0.26442   0.30575   0.33402   0.33402   0.34590
  Beta virt. eigenvalues --    0.35390   0.36361   0.38207   0.38208   0.38585
  Beta virt. eigenvalues --    0.40716   0.40717   0.44677   0.47097   0.47098
  Beta virt. eigenvalues --    0.60596   0.60855   0.60856   0.65907   0.74529
  Beta virt. eigenvalues --    0.74529   0.75581   0.75581   0.76849   0.76850
  Beta virt. eigenvalues --    0.79483   0.81725   0.84033   0.84034   0.86328
  Beta virt. eigenvalues --    0.91975   0.91975   0.93048   0.93048   0.93755
  Beta virt. eigenvalues --    0.96311   0.98587   0.98588   1.02810   1.03268
  Beta virt. eigenvalues --    1.04892   1.04894   1.07139   1.07141   1.13079
  Beta virt. eigenvalues --    1.14019   1.14021   1.24258   1.37460   1.37463
  Beta virt. eigenvalues --    1.48238   1.48239   1.51624   1.51624   1.51709
  Beta virt. eigenvalues --    1.52504   1.54677   1.73924   1.75312   1.75313
  Beta virt. eigenvalues --    1.90568   1.91120   1.91123   2.03485   2.03487
  Beta virt. eigenvalues --    2.09272   2.39613   2.77392   2.78471   2.78472
  Beta virt. eigenvalues --    2.95240   3.08810   3.08814   3.33877   3.38037
  Beta virt. eigenvalues --    3.38040   3.38290   3.42290   3.42292   3.48297
  Beta virt. eigenvalues --    3.48300   3.48758   3.64809   3.64809   3.66732
  Beta virt. eigenvalues --    3.66733   3.69249   3.73677   3.73679   3.75050
  Beta virt. eigenvalues --    3.75283   3.81819   3.81819   3.88656   3.96054
  Beta virt. eigenvalues --    3.96055   4.18017   4.18833   4.18836   4.45057
  Beta virt. eigenvalues --    4.47836   4.47837   4.65345   4.65347   4.69895
  Beta virt. eigenvalues --    4.85950   5.00235   5.00241   5.08002   5.08003
  Beta virt. eigenvalues --    5.22058   5.48367   5.48372   5.87965   5.93467
  Beta virt. eigenvalues --    6.19133   6.19141  15.95489
          Condensed to atoms (all electrons):
               1          2          3          4          5
     1  C    5.898151   0.356947   0.356916   0.357049  -0.000360
     2  H    0.356947   0.304113   0.008422   0.008399  -0.000405
     3  H    0.356916   0.008422   0.304092   0.008405  -0.000406
     4  H    0.357049   0.008399   0.008405   0.304253  -0.000405
     5  H   -0.000360  -0.000405  -0.000406  -0.000405   1.000262
          Atomic-Atomic Spin Densities.
               1          2          3          4          5
     1  C    0.993379   0.013501   0.013521   0.013418  -0.002347
     2  H    0.013501  -0.031285   0.003663   0.003683   0.000407
     3  H    0.013521   0.003663  -0.031281   0.003678   0.000408
     4  H    0.013418   0.003683   0.003678  -0.031404   0.000407
     5  H   -0.002347   0.000407   0.000408   0.000407  -1.000085
 Mulliken charges and spin densities:
               1          2
     1  C   -0.968704   1.031472
     2  H    0.322523  -0.010032
     3  H    0.322570  -0.010011
     4  H    0.322298  -0.010218
     5  H    0.001312  -1.001212
 Sum of Mulliken charges =  -0.00000   0.00000
 Mulliken charges and spin densities with hydrogens summed into heavy atoms:
               1          2
     1  C   -0.000000   0.000000
 Electronic spatial extent (au):  <R**2>=             90.2921
 Charge=             -0.0000 electrons
 Dipole moment (field-independent basis, Debye):
    X=              0.1042    Y=              0.3505    Z=              0.0637  Tot=              0.3712
 Quadrupole moment (field-independent basis, Debye-Ang):
   XX=             -8.8353   YY=            -10.2293   ZZ=             -8.7507
   XY=             -0.4545   XZ=             -0.0825   YZ=             -0.2780
 Traceless Quadrupole moment (field-independent basis, Debye-Ang):
   XX=              0.4364   YY=             -0.9576   ZZ=              0.5211
   XY=             -0.4545   XZ=             -0.0825   YZ=             -0.2780
 Octapole moment (field-independent basis, Debye-Ang**2):
  XXX=              4.8365  YYY=             15.8586  ZZZ=              3.6956  XYY=              1.4800
  XXY=              5.3982  XXZ=              0.2010  XZZ=              1.5341  YZZ=              5.1631
  YYZ=              0.9054  XYZ=              0.2297
 Hexadecapole moment (field-independent basis, Debye-Ang**3):
 XXXX=            -27.6031 YYYY=           -139.8063 ZZZZ=            -20.7836 XXXY=            -17.9672
 XXXZ=             -3.4522 YYYX=            -18.6045 YYYZ=            -11.3791 ZZZX=             -3.2114
 ZZZY=            -10.8072 XXYY=            -27.7140 XXZZ=             -8.1801 YYZZ=            -26.6138
 XXYZ=             -3.8569 YYXZ=             -1.0754 ZZXY=             -6.0085
 N-N= 1.085024662959D+01 E-N=-1.145918297002D+02  KE= 4.007226301096D+01
                          Isotropic Fermi Contact Couplings
        Atom                 a.u.       MegaHertz       Gauss      10(-4) cm-1
     1  C(13)              0.08396      47.19542      16.84050      15.74270
     2  H(1)              -0.01088     -24.32100      -8.67834      -8.11261
     3  H(1)              -0.01088     -24.31711      -8.67695      -8.11131
     4  H(1)              -0.01089     -24.33452      -8.68316      -8.11712
     5  H(1)              -0.29158    -651.67301    -232.53313    -217.37472
 --------------------------------------------------------
       Center         ----  Spin Dipole Couplings  ----
                      3XX-RR        3YY-RR        3ZZ-RR
 --------------------------------------------------------
     1   Atom       -0.418980      0.919214     -0.500234
     2   Atom       -0.067307     -0.008934      0.076242
     3   Atom        0.046246     -0.008935     -0.037311
     4   Atom        0.022404      0.014896     -0.037301
     5   Atom       -0.002356      0.005168     -0.002812
 --------------------------------------------------------
                        XY            XZ            YZ
 --------------------------------------------------------
     1   Atom        0.436389      0.079313      0.266798
     2   Atom        0.019035     -0.000214     -0.000721
     3   Atom        0.008023     -0.058366      0.017275
     4   Atom       -0.028485      0.058319     -0.017420
     5   Atom        0.002452      0.000446      0.001500
 --------------------------------------------------------


 ---------------------------------------------------------------------------------
              Anisotropic Spin Dipole Couplings in Principal Axis System
 ---------------------------------------------------------------------------------

       Atom             a.u.   MegaHertz   Gauss  10(-4) cm-1        Axes

              Baa    -0.5487   -73.634   -26.274   -24.562  0.0259 -0.1862  0.9822
     1 C(13)  Bbb    -0.5487   -73.632   -26.274   -24.561  0.9594 -0.2713 -0.0767
              Bcc     1.0974   147.265    52.548    49.122  0.2807  0.9443  0.1716
 
              Baa    -0.0730   -38.931   -13.892   -12.986  0.9585 -0.2850 -0.0000
     2 H(1)   Bbb    -0.0033    -1.751    -0.625    -0.584  0.2849  0.9585  0.0095
              Bcc     0.0762    40.683    14.517    13.570 -0.0027 -0.0091  1.0000
 
              Baa    -0.0730   -38.932   -13.892   -12.986  0.4369 -0.2849  0.8532
     3 H(1)   Bbb    -0.0033    -1.753    -0.625    -0.585  0.1384  0.9585  0.2492
              Bcc     0.0763    40.684    14.517    13.571  0.8888 -0.0092 -0.4582
 
              Baa    -0.0730   -38.930   -13.891   -12.986 -0.5217  0.0000  0.8531
     4 H(1)   Bbb    -0.0033    -1.749    -0.624    -0.583  0.4079  0.8783  0.2494
              Bcc     0.0762    40.678    14.515    13.569  0.7493 -0.4781  0.4582
 
              Baa    -0.0031    -1.646    -0.587    -0.549  0.5802 -0.3093  0.7535
     5 H(1)   Bbb    -0.0031    -1.646    -0.587    -0.549  0.7646 -0.1119 -0.6347
              Bcc     0.0062     3.291     1.174     1.098  0.2806  0.9443  0.1716
 

 ---------------------------------------------------------------------------------

 DipInt: DoE/N= T T RetVal/Mat= T F Init=T NMatP=  1 IDeriv=0 Min/MaxMlt=  1  1
 Entering OneElI...
 Multipole integrals L=1 to 1 MinM= 0 MaxM= 0.
 Requested accuracy = 0.1000D-12
 PrsmSu:  NPrtUS=   1 ThrOK=F IAlg=1 NPAlg=1 LenDen=           0.
 Prism:   IPart=     0 DynPar=F LinDyn=F Incr=          12.
 PRISM was handed   419324828 working-precision words and  1260 shell-pairs
 IPart=  0 NShTot=        1260 NBatch=          35 AvBLen=        36.0
 PrSmSu:  NxtVal=             13.
 Entering OneElI...
 Calculate overlap and kinetic energy integrals
    NBasis = 155  MinDer = 1  MaxDer = 1
 Requested accuracy = 0.1000D-12
 PrsmSu:  NPrtUS=  32 ThrOK=T IAlg=1 NPAlg=1 LenDen=           0.
 Prism:   IPart=     0 DynPar=F LinDyn=F Incr=           1.
 PRISM was handed    13083027 working-precision words and  1275 shell-pairs
 PRISM was handed    13083027 working-precision words and  1275 shell-pairs
 PRISM was handed    13083027 working-precision words and  1275 shell-pairs
 PRISM was handed    13083027 working-precision words and  1275 shell-pairs
 PRISM was handed    13083027 working-precision words and  1275 shell-pairs
 PRISM was handed    13083027 working-precision words and  1275 shell-pairs
 PRISM was handed    13083027 working-precision words and  1275 shell-pairs
 PRISM was handed    13083027 working-precision words and  1275 shell-pairs
 PRISM was handed    13083027 working-precision words and  1275 shell-pairs
 PRISM was handed    13083027 working-precision words and  1275 shell-pairs
 PRISM was handed    13083027 working-precision words and  1275 shell-pairs
 PRISM was handed    13083027 working-precision words and  1275 shell-pairs
 PRISM was handed    13083027 working-precision words and  1275 shell-pairs
 PRISM was handed    13083027 working-precision words and  1275 shell-pairs
 PRISM was handed    13083027 working-precision words and  1275 shell-pairs
 PRISM was handed    13083027 working-precision words and  1275 shell-pairs
 PRISM was handed    13083027 working-precision words and  1275 shell-pairs
 PRISM was handed    13083027 working-precision words and  1275 shell-pairs
 PRISM was handed    13083027 working-precision words and  1275 shell-pairs
 PRISM was handed    13083027 working-precision words and  1275 shell-pairs
 PRISM was handed    13083027 working-precision words and  1275 shell-pairs
 PRISM was handed    13083027 working-precision words and  1275 shell-pairs
 PRISM was handed    13083027 working-precision words and  1275 shell-pairs
 PRISM was handed    13083027 working-precision words and  1275 shell-pairs
 PRISM was handed    13083027 working-precision words and  1275 shell-pairs
 PRISM was handed    13083027 working-precision words and  1275 shell-pairs
 PRISM was handed    13083027 working-precision words and  1275 shell-pairs
 PRISM was handed    13083027 working-precision words and  1275 shell-pairs
 PRISM was handed    13083027 working-precision words and  1275 shell-pairs
 PRISM was handed    13083027 working-precision words and  1275 shell-pairs
 PRISM was handed    13083027 working-precision words and  1275 shell-pairs
 PRISM was handed    13083027 working-precision words and  1275 shell-pairs
 IPart=  0 NShTot=          70 NBatch=          41 AvBLen=         1.7
 IPart=  3 NShTot=          51 NBatch=          23 AvBLen=         2.2
 IPart=  8 NShTot=          43 NBatch=          20 AvBLen=         2.1
 IPart= 31 NShTot=          29 NBatch=           9 AvBLen=         3.2
 IPart= 24 NShTot=          33 NBatch=          11 AvBLen=         3.0
 IPart= 20 NShTot=          35 NBatch=          12 AvBLen=         2.9
 IPart=  2 NShTot=          56 NBatch=          28 AvBLen=         2.0
 IPart= 15 NShTot=          36 NBatch=          13 AvBLen=         2.8
 IPart= 18 NShTot=          35 NBatch=          12 AvBLen=         2.9
 IPart= 28 NShTot=          31 NBatch=          11 AvBLen=         2.8
 IPart=  7 NShTot=          45 NBatch=          21 AvBLen=         2.1
 IPart=  6 NShTot=          45 NBatch=          21 AvBLen=         2.1
 IPart= 14 NShTot=          37 NBatch=          14 AvBLen=         2.6
 IPart= 10 NShTot=          43 NBatch=          20 AvBLen=         2.1
 IPart= 19 NShTot=          35 NBatch=          12 AvBLen=         2.9
 IPart= 21 NShTot=          35 NBatch=          12 AvBLen=         2.9
 IPart= 22 NShTot=          34 NBatch=          11 AvBLen=         3.1
 IPart= 16 NShTot=          35 NBatch=          12 AvBLen=         2.9
 IPart= 29 NShTot=          31 NBatch=          11 AvBLen=         2.8
 IPart= 26 NShTot=          33 NBatch=          11 AvBLen=         3.0
 IPart= 27 NShTot=          32 NBatch=          11 AvBLen=         2.9
 IPart= 23 NShTot=          34 NBatch=          11 AvBLen=         3.1
 IPart= 17 NShTot=          35 NBatch=          12 AvBLen=         2.9
 IPart= 25 NShTot=          33 NBatch=          11 AvBLen=         3.0
 IPart=  5 NShTot=          47 NBatch=          22 AvBLen=         2.1
 IPart= 13 NShTot=          40 NBatch=          17 AvBLen=         2.4
 IPart= 12 NShTot=          40 NBatch=          17 AvBLen=         2.4
 IPart=  9 NShTot=          43 NBatch=          20 AvBLen=         2.1
 IPart= 30 NShTot=          29 NBatch=           9 AvBLen=         3.2
 IPart=  4 NShTot=          50 NBatch=          22 AvBLen=         2.3
 IPart=  1 NShTot=          60 NBatch=          31 AvBLen=         1.9
 IPart= 11 NShTot=          40 NBatch=          17 AvBLen=         2.4
 PrSmSu:  NxtVal=             33.
 Entering OneElI...
 Calculate potential energy integrals
    NBasis = 155  MinDer = 1  MaxDer = 1
 Requested accuracy = 0.1000D-12
 PrsmSu:  NPrtUS=  32 ThrOK=T IAlg=1 NPAlg=1 LenDen=           0.
 Prism:   IPart=     0 DynPar=F LinDyn=F Incr=           1.
 PRISM was handed    13084588 working-precision words and  1235 shell-pairs
 PRISM was handed    13084588 working-precision words and  1235 shell-pairs
 PRISM was handed    13084588 working-precision words and  1235 shell-pairs
 PRISM was handed    13084588 working-precision words and  1235 shell-pairs
 PRISM was handed    13084588 working-precision words and  1235 shell-pairs
 PRISM was handed    13084588 working-precision words and  1235 shell-pairs
 PRISM was handed    13084588 working-precision words and  1235 shell-pairs
 PRISM was handed    13084588 working-precision words and  1235 shell-pairs
 PRISM was handed    13084588 working-precision words and  1235 shell-pairs
 PRISM was handed    13084588 working-precision words and  1235 shell-pairs
 PRISM was handed    13084588 working-precision words and  1235 shell-pairs
 PRISM was handed    13084588 working-precision words and  1235 shell-pairs
 PRISM was handed    13084588 working-precision words and  1235 shell-pairs
 PRISM was handed    13084588 working-precision words and  1235 shell-pairs
 PRISM was handed    13084588 working-precision words and  1235 shell-pairs
 PRISM was handed    13084588 working-precision words and  1235 shell-pairs
 PRISM was handed    13084588 working-precision words and  1235 shell-pairs
 PRISM was handed    13084588 working-precision words and  1235 shell-pairs
 PRISM was handed    13084588 working-precision words and  1235 shell-pairs
 PRISM was handed    13084588 working-precision words and  1235 shell-pairs
 PRISM was handed    13084588 working-precision words and  1235 shell-pairs
 PRISM was handed    13084588 working-precision words and  1235 shell-pairs
 PRISM was handed    13084588 working-precision words and  1235 shell-pairs
 PRISM was handed    13084588 working-precision words and  1235 shell-pairs
 PRISM was handed    13084588 working-precision words and  1235 shell-pairs
 PRISM was handed    13084588 working-precision words and  1235 shell-pairs
 PRISM was handed    13084588 working-precision words and  1235 shell-pairs
 PRISM was handed    13084588 working-precision words and  1235 shell-pairs
 PRISM was handed    13084588 working-precision words and  1235 shell-pairs
 PRISM was handed    13084588 working-precision words and  1235 shell-pairs
 PRISM was handed    13084588 working-precision words and  1235 shell-pairs
 PRISM was handed    13084588 working-precision words and  1235 shell-pairs
 IPart= 23 NShTot=         165 NBatch=          33 AvBLen=         5.0
 IPart= 29 NShTot=         150 NBatch=          30 AvBLen=         5.0
 IPart=  3 NShTot=         235 NBatch=          47 AvBLen=         5.0
 IPart=  9 NShTot=         215 NBatch=          43 AvBLen=         5.0
 IPart= 31 NShTot=         135 NBatch=          27 AvBLen=         5.0
 IPart=  1 NShTot=         285 NBatch=          57 AvBLen=         5.0
 IPart= 11 NShTot=         200 NBatch=          40 AvBLen=         5.0
 IPart=  5 NShTot=         220 NBatch=          44 AvBLen=         5.0
 IPart= 13 NShTot=         195 NBatch=          39 AvBLen=         5.0
 IPart= 25 NShTot=         160 NBatch=          32 AvBLen=         5.0
 IPart= 27 NShTot=         160 NBatch=          32 AvBLen=         5.0
 IPart=  4 NShTot=         230 NBatch=          46 AvBLen=         5.0
 IPart= 12 NShTot=         200 NBatch=          40 AvBLen=         5.0
 IPart= 17 NShTot=         175 NBatch=          35 AvBLen=         5.0
 IPart= 20 NShTot=         175 NBatch=          35 AvBLen=         5.0
 IPart= 26 NShTot=         160 NBatch=          32 AvBLen=         5.0
 IPart= 15 NShTot=         175 NBatch=          35 AvBLen=         5.0
 IPart= 21 NShTot=         170 NBatch=          34 AvBLen=         5.0
 IPart=  7 NShTot=         215 NBatch=          43 AvBLen=         5.0
 IPart= 19 NShTot=         175 NBatch=          35 AvBLen=         5.0
 IPart= 18 NShTot=         175 NBatch=          35 AvBLen=         5.0
 IPart= 16 NShTot=         175 NBatch=          35 AvBLen=         5.0
 IPart=  8 NShTot=         215 NBatch=          43 AvBLen=         5.0
 IPart= 10 NShTot=         200 NBatch=          40 AvBLen=         5.0
 IPart=  0 NShTot=         325 NBatch=          65 AvBLen=         5.0
 IPart=  2 NShTot=         265 NBatch=          53 AvBLen=         5.0
 IPart= 14 NShTot=         185 NBatch=          37 AvBLen=         5.0
 IPart= 28 NShTot=         155 NBatch=          31 AvBLen=         5.0
 IPart= 22 NShTot=         165 NBatch=          33 AvBLen=         5.0
 IPart= 30 NShTot=         140 NBatch=          28 AvBLen=         5.0
 IPart=  6 NShTot=         220 NBatch=          44 AvBLen=         5.0
 IPart= 24 NShTot=         160 NBatch=          32 AvBLen=         5.0
 PrSmSu:  NxtVal=             33.
 l701 out
 I=    0 X=   4.100114123919D-02 Y=   1.379145401484D-01 Z=   2.506901697438D-02
 I=    1 X=  -3.066441178622D-01 Y=  -1.032265581956D+00 Z=  -1.874019995822D-01
 I=    2 X=   4.069564844941D-03 Y=   1.410379951671D-02 Z=   2.324191065731D+00
 I=    3 X=   2.070555212658D+00 Y=   1.411580189042D-02 Z=  -1.055623766728D+00
 I=    4 X=  -1.726700835848D+00 Y=   1.142955583019D+00 Z=  -1.055918887401D+00
 I=    5 X=  -4.127982379282D-02 Y=  -1.389096024703D-01 Z=  -2.524641202030D-02
 ICntrl=      2127.
 Calling FoFJK, ICntrl=      2127 FMM=F ISym2X=0 I1Cent= 0 IOpClX= 1 NMat=1 NMatS=1 NMatT=0.
 FoFJK:  IHMeth= 1 ICntrl=    2127 DoSepK=T KAlg= 0 I1Cent=   0 FoldK=F
 IRaf=         1 NMat=   1 IRICut=       1 DoRegI=T DoRafI=F ISym2E= 0.
 FoFCou: FMM=F IPFlag=           0 FMFlag=      100000 FMFlg1=         800
         NFxFlg=           0 DoJE=F BraDBF=F KetDBF=F FulRan=T
         wScrn=  0.000000 ICntrl=    2527 IOpCl=  0 I1Cent=           0 NGrid=           0
         NMat0=    1 NMatS0=      1 NMatT0=    0 NMatD0=    1 NMtDS0=    0 NMtDT0=    0
 Symmetry not used in FoFCou.
 FoFCou:  KetSym=F NOpSet=  1 NOpAb=1 NOp=  1.
 FoFCou:  CnvScl= 1.00D+00 Thresh= 1.00D-10 IAcrcy=      10.
 PrismS was handed   419300133 working-precision words and  1244 shell-pairs
 FoFCou: LinMIO=F DoNuc=F BraDBF=F KetDBF=F HaveP=T PDBF=F HaveZ=T HaveW=F
         NIJTC =      10 NIJTAt=       0 NIJTCD=       0 NIJTT =      10
         IJTBeg=       1 IJTEnd=      10 KLTBeg=       1 KLTEnd=      10
         IPTBeg=       1 IPTEnd=      10 IPTBCv=       1 IPTECv=      10
         IZTBeg=       1 IZTEnd=      10 IZTBCv=       1 IZTECv=      10
         IWTBeg=      11 IWTEnd=      10 IWTBCv=      11 IWTECv=      10
         INTBeg=       1 INTEnd=       0 IFTBCv=       1 IFTECv=      10
 NCel replicated for PrismC:     1
 CoulSu:  IncDef=  1024 NBBP=         774390 NTPThr=   100 NPartT=   32 Incr=         241 LDynOK=F.
 CoulSu:  NPrtUS=  32 ThrOK=T IAlg=1 NPAlg=1 LenDen=           0 LWGrdD=           0 DoCopy=F.
 Enter PrismC: JobTyp=21 DoJE=F Cont=F.
 Enter PrismC: JobTyp=21 DoJE=F Cont=F.
 Enter PrismC: JobTyp=21 DoJE=F Cont=F.
 PrismC:  IPart=     0 DynPar=T LinDyn=F Incr=         241 UseFst=F UseS4=T IGathr=2.
 PrismC was handed    13083664 working-precision words and  1244 shell-pairs
 Enter PrismC: JobTyp=21 DoJE=F Cont=F.
 Enter PrismC: JobTyp=21 DoJE=F Cont=F.
 Enter PrismC: JobTyp=21 DoJE=F Cont=F.
 Enter PrismC: JobTyp=21 DoJE=F Cont=F.
 Enter PrismC: JobTyp=21 DoJE=F Cont=F.
 Enter PrismC: JobTyp=21 DoJE=F Cont=F.
 Enter PrismC: JobTyp=21 DoJE=F Cont=F.
 Enter PrismC: JobTyp=21 DoJE=F Cont=F.
 Enter PrismC: JobTyp=21 DoJE=F Cont=F.
 Enter PrismC: JobTyp=21 DoJE=F Cont=F.
 Enter PrismC: JobTyp=21 DoJE=F Cont=F.
 Enter PrismC: JobTyp=21 DoJE=F Cont=F.
 Enter PrismC: JobTyp=21 DoJE=F Cont=F.
 Enter PrismC: JobTyp=21 DoJE=F Cont=F.
 Enter PrismC: JobTyp=21 DoJE=F Cont=F.
 Enter PrismC: JobTyp=21 DoJE=F Cont=F.
 Enter PrismC: JobTyp=21 DoJE=F Cont=F.
 Enter PrismC: JobTyp=21 DoJE=F Cont=F.
 PrismC was handed    13083664 working-precision words and  1244 shell-pairs
 Enter PrismC: JobTyp=21 DoJE=F Cont=F.
 PrismC was handed    13083664 working-precision words and  1244 shell-pairs
 Enter PrismC: JobTyp=21 DoJE=F Cont=F.
 PrismC was handed    13083664 working-precision words and  1244 shell-pairs
 Enter PrismC: JobTyp=21 DoJE=F Cont=F.
 PrismC was handed    13083664 working-precision words and  1244 shell-pairs
 Enter PrismC: JobTyp=21 DoJE=F Cont=F.
 PrismC was handed    13083664 working-precision words and  1244 shell-pairs
 Enter PrismC: JobTyp=21 DoJE=F Cont=F.
 Enter PrismC: JobTyp=21 DoJE=F Cont=F.
 PrismC was handed    13083664 working-precision words and  1244 shell-pairs
 Enter PrismC: JobTyp=21 DoJE=F Cont=F.
 PrismC was handed    13083664 working-precision words and  1244 shell-pairs
 Enter PrismC: JobTyp=21 DoJE=F Cont=F.
 PrismC was handed    13083664 working-precision words and  1244 shell-pairs
 Enter PrismC: JobTyp=21 DoJE=F Cont=F.
 PrismC was handed    13083664 working-precision words and  1244 shell-pairs
 Enter PrismC: JobTyp=21 DoJE=F Cont=F.
 PrismC was handed    13083664 working-precision words and  1244 shell-pairs
 Enter PrismC: JobTyp=21 DoJE=F Cont=F.
 PrismC was handed    13083664 working-precision words and  1244 shell-pairs
 PrismC was handed    13083664 working-precision words and  1244 shell-pairs
 PrismC was handed    13083664 working-precision words and  1244 shell-pairs
 PrismC was handed    13083664 working-precision words and  1244 shell-pairs
 PrismC was handed    13083664 working-precision words and  1244 shell-pairs
 PrismC was handed    13083664 working-precision words and  1244 shell-pairs
 PrismC was handed    13083664 working-precision words and  1244 shell-pairs
 PrismC was handed    13083664 working-precision words and  1244 shell-pairs
 PrismC was handed    13083664 working-precision words and  1244 shell-pairs
 PrismC was handed    13083664 working-precision words and  1244 shell-pairs
 PrismC was handed    13083664 working-precision words and  1244 shell-pairs
 PrismC was handed    13083664 working-precision words and  1244 shell-pairs
 PrismC was handed    13083664 working-precision words and  1244 shell-pairs
 PrismC was handed    13083664 working-precision words and  1244 shell-pairs
 PrismC was handed    13083664 working-precision words and  1244 shell-pairs
 PrismC was handed    13083664 working-precision words and  1244 shell-pairs
 PrismC was handed    13083664 working-precision words and  1244 shell-pairs
 PrismC was handed    13083664 working-precision words and  1244 shell-pairs
 PrismC was handed    13083664 working-precision words and  1244 shell-pairs
 PrismC was handed    13083664 working-precision words and  1244 shell-pairs
 PrismC was handed    13083664 working-precision words and  1244 shell-pairs
 IPart= 15 NShTot=       24779 NShNF=       24779 NShFF=           0 NBatch=         247 AvBLen=       100.3
 IPart= 14 NShTot=       22389 NShNF=       22389 NShFF=           0 NBatch=         202 AvBLen=       110.8
 IPart= 28 NShTot=       22960 NShNF=       22960 NShFF=           0 NBatch=         227 AvBLen=       101.1
 IPart= 10 NShTot=       22985 NShNF=       22985 NShFF=           0 NBatch=         246 AvBLen=        93.4
 IPart=  0 NShTot=       19189 NShNF=       19189 NShFF=           0 NBatch=         168 AvBLen=       114.2
 IPart= 26 NShTot=       23748 NShNF=       23748 NShFF=           0 NBatch=         235 AvBLen=       101.1
 IPart= 21 NShTot=       22046 NShNF=       22046 NShFF=           0 NBatch=         202 AvBLen=       109.1
 IPart=  3 NShTot=       19568 NShNF=       19568 NShFF=           0 NBatch=         202 AvBLen=        96.9
 IPart= 13 NShTot=       24976 NShNF=       24976 NShFF=           0 NBatch=         171 AvBLen=       146.1
 IPart=  6 NShTot=       24102 NShNF=       24102 NShFF=           0 NBatch=         225 AvBLen=       107.1
 IPart= 12 NShTot=       21066 NShNF=       21066 NShFF=           0 NBatch=         232 AvBLen=        90.8
 IPart= 20 NShTot=       22608 NShNF=       22608 NShFF=           0 NBatch=         239 AvBLen=        94.6
 IPart= 25 NShTot=       21250 NShNF=       21250 NShFF=           0 NBatch=         238 AvBLen=        89.3
 IPart= 17 NShTot=       20570 NShNF=       20570 NShFF=           0 NBatch=         230 AvBLen=        89.4
 IPart= 31 NShTot=       24395 NShNF=       24395 NShFF=           0 NBatch=         230 AvBLen=       106.1
 IPart=  2 NShTot=       20137 NShNF=       20137 NShFF=           0 NBatch=         235 AvBLen=        85.7
 IPart= 24 NShTot=       22736 NShNF=       22736 NShFF=           0 NBatch=         209 AvBLen=       108.8
 IPart=  9 NShTot=       20205 NShNF=       20205 NShFF=           0 NBatch=         229 AvBLen=        88.2
 IPart= 23 NShTot=       17500 NShNF=       17500 NShFF=           0 NBatch=         189 AvBLen=        92.6
 IPart= 22 NShTot=       23958 NShNF=       23958 NShFF=           0 NBatch=         249 AvBLen=        96.2
 IPart= 19 NShTot=       17090 NShNF=       17090 NShFF=           0 NBatch=         180 AvBLen=        94.9
 IPart= 11 NShTot=       22528 NShNF=       22528 NShFF=           0 NBatch=         232 AvBLen=        97.1
 IPart= 27 NShTot=       24434 NShNF=       24434 NShFF=           0 NBatch=         210 AvBLen=       116.4
 IPart= 18 NShTot=       17845 NShNF=       17845 NShFF=           0 NBatch=         204 AvBLen=        87.5
 IPart=  1 NShTot=       19406 NShNF=       19406 NShFF=           0 NBatch=         243 AvBLen=        79.9
 IPart= 29 NShTot=       24504 NShNF=       24504 NShFF=           0 NBatch=         251 AvBLen=        97.6
 IPart=  5 NShTot=       23821 NShNF=       23821 NShFF=           0 NBatch=         239 AvBLen=        99.7
 IPart= 30 NShTot=       22176 NShNF=       22176 NShFF=           0 NBatch=         250 AvBLen=        88.7
 IPart=  7 NShTot=       25686 NShNF=       25686 NShFF=           0 NBatch=         234 AvBLen=       109.8
 IPart=  4 NShTot=       24331 NShNF=       24331 NShFF=           0 NBatch=         233 AvBLen=       104.4
 IPart=  8 NShTot=       20483 NShNF=       20483 NShFF=           0 NBatch=         221 AvBLen=        92.7
 IPart= 16 NShTot=       16941 NShNF=       16941 NShFF=           0 NBatch=         171 AvBLen=        99.1
 CoulSu:  NxtVal=         856756.
 FoFCou: FMM=F IPFlag=           0 FMFlag=      100000 FMFlg1=         800
         NFxFlg=           0 DoJE=F BraDBF=F KetDBF=F FulRan=T
         wScrn=  0.000000 ICntrl=    2127 IOpCl=  1 I1Cent=           0 NGrid=           0
         NMat0=    1 NMatS0=      0 NMatT0=    1 NMatD0=    1 NMtDS0=    0 NMtDT0=    0
         CW=    0.222036    0.777964
         WU=    0.000000   12.500000
 Symmetry not used in FoFCou.
 FoFCou:  KetSym=F NOpSet=  1 NOpAb=1 NOp=  1.
 FoFCou:  CnvScl= 1.00D+00 Thresh= 1.00D-10 IAcrcy=      10.
 PrismS was handed   419298893 working-precision words and  1244 shell-pairs
 FoFCou: LinMIO=F DoNuc=F BraDBF=F KetDBF=F HaveP=T PDBF=F HaveZ=T HaveW=F
         NIJTC =      10 NIJTAt=       0 NIJTCD=       0 NIJTT =      10
         IJTBeg=       1 IJTEnd=      10 KLTBeg=       1 KLTEnd=      10
         IPTBeg=       1 IPTEnd=      10 IPTBCv=       1 IPTECv=      10
         IZTBeg=       1 IZTEnd=      10 IZTBCv=       1 IZTECv=      10
         IWTBeg=      11 IWTEnd=      10 IWTBCv=      11 IWTECv=      10
         INTBeg=       1 INTEnd=       0 IFTBCv=       1 IFTECv=      10
 NCel replicated for PrismC:     1
 CoulSu:  IncDef=  1024 NBBP=         774390 NTPThr=   100 NPartT=   32 Incr=         241 LDynOK=F.
 CoulSu:  NPrtUS=  32 ThrOK=T IAlg=1 NPAlg=1 LenDen=           0 LWGrdD=           0 DoCopy=F.
 Enter PrismC: JobTyp=21 DoJE=F Cont=F.
 Linear combination for Coulomb/exchange, wScrn=  0.000000
 Enter PrismC: JobTyp=21 DoJE=F Cont=F.
 Enter PrismC: JobTyp=21 DoJE=F Cont=F.
 Linear combination for Coulomb/exchange, wScrn=  0.000000
 CW=    0.222036    0.777964
 WU=    0.000000   12.500000
 Enter PrismC: JobTyp=21 DoJE=F Cont=F.
 Linear combination for Coulomb/exchange, wScrn=  0.000000
 CW=    0.222036    0.777964
 WU=    0.000000   12.500000
 Enter PrismC: JobTyp=21 DoJE=F Cont=F.
 Linear combination for Coulomb/exchange, wScrn=  0.000000
 CW=    0.222036    0.777964
 WU=    0.000000   12.500000
 PrismC was handed    13083625 working-precision words and  1244 shell-pairs
 Enter PrismC: JobTyp=21 DoJE=F Cont=F.
 Linear combination for Coulomb/exchange, wScrn=  0.000000
 CW=    0.222036    0.777964
 WU=    0.000000   12.500000
 Enter PrismC: JobTyp=21 DoJE=F Cont=F.
 Linear combination for Coulomb/exchange, wScrn=  0.000000
 CW=    0.222036    0.777964
 WU=    0.000000   12.500000
 Enter PrismC: JobTyp=21 DoJE=F Cont=F.
 Linear combination for Coulomb/exchange, wScrn=  0.000000
 CW=    0.222036    0.777964
 WU=    0.000000   12.500000
 Enter PrismC: JobTyp=21 DoJE=F Cont=F.
 Linear combination for Coulomb/exchange, wScrn=  0.000000
 CW=    0.222036    0.777964
 WU=    0.000000   12.500000
 CW=    0.222036    0.777964
 WU=    0.000000   12.500000
 PrismC:  IPart=     0 DynPar=T LinDyn=F Incr=         241 UseFst=F UseS4=T IGathr=2.
 PrismC was handed    13083625 working-precision words and  1244 shell-pairs
 Enter PrismC: JobTyp=21 DoJE=F Cont=F.
 Linear combination for Coulomb/exchange, wScrn=  0.000000
 CW=    0.222036    0.777964
 WU=    0.000000   12.500000
 PrismC was handed    13083625 working-precision words and  1244 shell-pairs
 Enter PrismC: JobTyp=21 DoJE=F Cont=F.
 Linear combination for Coulomb/exchange, wScrn=  0.000000
 CW=    0.222036    0.777964
 WU=    0.000000   12.500000
 PrismC was handed    13083625 working-precision words and  1244 shell-pairs
 Enter PrismC: JobTyp=21 DoJE=F Cont=F.
 Linear combination for Coulomb/exchange, wScrn=  0.000000
 CW=    0.222036    0.777964
 WU=    0.000000   12.500000
 PrismC was handed    13083625 working-precision words and  1244 shell-pairs
 Enter PrismC: JobTyp=21 DoJE=F Cont=F.
 Linear combination for Coulomb/exchange, wScrn=  0.000000
 CW=    0.222036    0.777964
 WU=    0.000000   12.500000
 Enter PrismC: JobTyp=21 DoJE=F Cont=F.
 Linear combination for Coulomb/exchange, wScrn=  0.000000
 CW=    0.222036    0.777964
 WU=    0.000000   12.500000
 Enter PrismC: JobTyp=21 DoJE=F Cont=F.
 Linear combination for Coulomb/exchange, wScrn=  0.000000
 CW=    0.222036    0.777964
 WU=    0.000000   12.500000
 Enter PrismC: JobTyp=21 DoJE=F Cont=F.
 Linear combination for Coulomb/exchange, wScrn=  0.000000
 CW=    0.222036    0.777964
 WU=    0.000000   12.500000
 Enter PrismC: JobTyp=21 DoJE=F Cont=F.
 Linear combination for Coulomb/exchange, wScrn=  0.000000
 CW=    0.222036    0.777964
 WU=    0.000000   12.500000
 PrismC was handed    13083625 working-precision words and  1244 shell-pairs
 Enter PrismC: JobTyp=21 DoJE=F Cont=F.
 Linear combination for Coulomb/exchange, wScrn=  0.000000
 CW=    0.222036    0.777964
 WU=    0.000000   12.500000
 Enter PrismC: JobTyp=21 DoJE=F Cont=F.
 Linear combination for Coulomb/exchange, wScrn=  0.000000
 CW=    0.222036    0.777964
 WU=    0.000000   12.500000
 PrismC was handed    13083625 working-precision words and  1244 shell-pairs
 PrismC was handed    13083625 working-precision words and  1244 shell-pairs
 Enter PrismC: JobTyp=21 DoJE=F Cont=F.
 Linear combination for Coulomb/exchange, wScrn=  0.000000
 CW=    0.222036    0.777964
 WU=    0.000000   12.500000
 Enter PrismC: JobTyp=21 DoJE=F Cont=F.
 Linear combination for Coulomb/exchange, wScrn=  0.000000
 CW=    0.222036    0.777964
 WU=    0.000000   12.500000
 Enter PrismC: JobTyp=21 DoJE=F Cont=F.
 Linear combination for Coulomb/exchange, wScrn=  0.000000
 CW=    0.222036    0.777964
 WU=    0.000000   12.500000
 Enter PrismC: JobTyp=21 DoJE=F Cont=F.
 Linear combination for Coulomb/exchange, wScrn=  0.000000
 CW=    0.222036    0.777964
 WU=    0.000000   12.500000
 PrismC was handed    13083625 working-precision words and  1244 shell-pairs
 Enter PrismC: JobTyp=21 DoJE=F Cont=F.
 Linear combination for Coulomb/exchange, wScrn=  0.000000
 CW=    0.222036    0.777964
 WU=    0.000000   12.500000
 Enter PrismC: JobTyp=21 DoJE=F Cont=F.
 Linear combination for Coulomb/exchange, wScrn=  0.000000
 CW=    0.222036    0.777964
 WU=    0.000000   12.500000
 PrismC was handed    13083625 working-precision words and  1244 shell-pairs
 PrismC was handed    13083625 working-precision words and  1244 shell-pairs
 PrismC was handed    13083625 working-precision words and  1244 shell-pairs
 Enter PrismC: JobTyp=21 DoJE=F Cont=F.
 Linear combination for Coulomb/exchange, wScrn=  0.000000
 CW=    0.222036    0.777964
 WU=    0.000000   12.500000
 Linear combination for Coulomb/exchange, wScrn=  0.000000
 CW=    0.222036    0.777964
 WU=    0.000000   12.500000
 PrismC was handed    13083625 working-precision words and  1244 shell-pairs
 PrismC was handed    13083625 working-precision words and  1244 shell-pairs
 Enter PrismC: JobTyp=21 DoJE=F Cont=F.
 Linear combination for Coulomb/exchange, wScrn=  0.000000
 CW=    0.222036    0.777964
 WU=    0.000000   12.500000
 PrismC was handed    13083625 working-precision words and  1244 shell-pairs
 PrismC was handed    13083625 working-precision words and  1244 shell-pairs
 PrismC was handed    13083625 working-precision words and  1244 shell-pairs
 Enter PrismC: JobTyp=21 DoJE=F Cont=F.
 Linear combination for Coulomb/exchange, wScrn=  0.000000
 CW=    0.222036    0.777964
 WU=    0.000000   12.500000
 PrismC was handed    13083625 working-precision words and  1244 shell-pairs
 PrismC was handed    13083625 working-precision words and  1244 shell-pairs
 PrismC was handed    13083625 working-precision words and  1244 shell-pairs
 PrismC was handed    13083625 working-precision words and  1244 shell-pairs
 Enter PrismC: JobTyp=21 DoJE=F Cont=F.
 PrismC was handed    13083625 working-precision words and  1244 shell-pairs
 PrismC was handed    13083625 working-precision words and  1244 shell-pairs
 PrismC was handed    13083625 working-precision words and  1244 shell-pairs
 Enter PrismC: JobTyp=21 DoJE=F Cont=F.
 Enter PrismC: JobTyp=21 DoJE=F Cont=F.
 Linear combination for Coulomb/exchange, wScrn=  0.000000
 CW=    0.222036    0.777964
 WU=    0.000000   12.500000
 PrismC was handed    13083625 working-precision words and  1244 shell-pairs
 PrismC was handed    13083625 working-precision words and  1244 shell-pairs
 Linear combination for Coulomb/exchange, wScrn=  0.000000
 CW=    0.222036    0.777964
 WU=    0.000000   12.500000
 PrismC was handed    13083625 working-precision words and  1244 shell-pairs
 Enter PrismC: JobTyp=21 DoJE=F Cont=F.
 Linear combination for Coulomb/exchange, wScrn=  0.000000
 CW=    0.222036    0.777964
 Linear combination for Coulomb/exchange, wScrn=  0.000000
 CW=    0.222036    0.777964
 WU=    0.000000   12.500000
 WU=    0.000000   12.500000
 PrismC was handed    13083625 working-precision words and  1244 shell-pairs
 PrismC was handed    13083625 working-precision words and  1244 shell-pairs
 PrismC was handed    13083625 working-precision words and  1244 shell-pairs
 PrismC was handed    13083625 working-precision words and  1244 shell-pairs
 PrismC was handed    13083625 working-precision words and  1244 shell-pairs
 IPart=  1 NShTot=       22918 NShNF=       22918 NShFF=           0 NBatch=         303 AvBLen=        75.6
 IPart=  6 NShTot=       23144 NShNF=       23144 NShFF=           0 NBatch=         274 AvBLen=        84.5
 IPart= 26 NShTot=       22148 NShNF=       22148 NShFF=           0 NBatch=         276 AvBLen=        80.2
 IPart=  5 NShTot=       20979 NShNF=       20979 NShFF=           0 NBatch=         285 AvBLen=        73.6
 IPart= 19 NShTot=       25127 NShNF=       25127 NShFF=           0 NBatch=         265 AvBLen=        94.8
 IPart= 31 NShTot=       22259 NShNF=       22259 NShFF=           0 NBatch=         249 AvBLen=        89.4
 IPart= 12 NShTot=       22078 NShNF=       22078 NShFF=           0 NBatch=         286 AvBLen=        77.2
 IPart=  7 NShTot=       19609 NShNF=       19609 NShFF=           0 NBatch=         291 AvBLen=        67.4
 IPart= 14 NShTot=       21024 NShNF=       21024 NShFF=           0 NBatch=         229 AvBLen=        91.8
 IPart= 30 NShTot=       27556 NShNF=       27556 NShFF=           0 NBatch=         245 AvBLen=       112.5
 IPart=  8 NShTot=       23637 NShNF=       23637 NShFF=           0 NBatch=         291 AvBLen=        81.2
 IPart=  9 NShTot=       24874 NShNF=       24874 NShFF=           0 NBatch=         263 AvBLen=        94.6
 IPart= 29 NShTot=       20509 NShNF=       20509 NShFF=           0 NBatch=         212 AvBLen=        96.7
 IPart= 22 NShTot=       22922 NShNF=       22922 NShFF=           0 NBatch=         288 AvBLen=        79.6
 IPart= 21 NShTot=       25577 NShNF=       25577 NShFF=           0 NBatch=         246 AvBLen=       104.0
 IPart= 28 NShTot=       20380 NShNF=       20380 NShFF=           0 NBatch=         294 AvBLen=        69.3
 IPart= 25 NShTot=       22786 NShNF=       22786 NShFF=           0 NBatch=         285 AvBLen=        80.0
 IPart= 13 NShTot=       24984 NShNF=       24984 NShFF=           0 NBatch=         281 AvBLen=        88.9
 IPart=  0 NShTot=       20595 NShNF=       20595 NShFF=           0 NBatch=         247 AvBLen=        83.4
 IPart= 17 NShTot=       22643 NShNF=       22643 NShFF=           0 NBatch=         258 AvBLen=        87.8
 IPart= 18 NShTot=       18311 NShNF=       18311 NShFF=           0 NBatch=         236 AvBLen=        77.6
 IPart= 16 NShTot=       20323 NShNF=       20323 NShFF=           0 NBatch=         211 AvBLen=        96.3
 IPart=  4 NShTot=       22034 NShNF=       22034 NShFF=           0 NBatch=         242 AvBLen=        91.0
 IPart= 20 NShTot=       25594 NShNF=       25594 NShFF=           0 NBatch=         269 AvBLen=        95.1
 IPart= 11 NShTot=       28094 NShNF=       28094 NShFF=           0 NBatch=         305 AvBLen=        92.1
 IPart= 15 NShTot=       23390 NShNF=       23390 NShFF=           0 NBatch=         292 AvBLen=        80.1
 IPart=  3 NShTot=       16178 NShNF=       16178 NShFF=           0 NBatch=         176 AvBLen=        91.9
 IPart=  2 NShTot=       21190 NShNF=       21190 NShFF=           0 NBatch=         196 AvBLen=       108.1
 IPart= 24 NShTot=       22495 NShNF=       22495 NShFF=           0 NBatch=         293 AvBLen=        76.8
 IPart= 23 NShTot=       14482 NShNF=       14482 NShFF=           0 NBatch=         197 AvBLen=        73.5
 IPart= 27 NShTot=       15585 NShNF=       15585 NShFF=           0 NBatch=         223 AvBLen=        69.9
 IPart= 10 NShTot=       20675 NShNF=       20675 NShFF=           0 NBatch=         286 AvBLen=        72.3
 CoulSu:  NxtVal=         856756.
 ReadGW:  IGet=0 IStart=           1 Next=           1 LGW=           0.
 Remaining memory in FofDFT      399.95 Mw
 CkSvGd:  ISavGI=        -1 IRadAn=       5 IRASav=       5 ISavGd=        -1.
 CalDSu:  NPrtUS=  32 ThrOK=T IAlg=1 NPAlg=2 DoDPD=T LenP=       12090 LenD1P=             0.
 IPart=  0 IRanGd=          0 ScrnBf=T ScrnGd=T RCrit=4.00D+00 DoMicB=T.
 IPart= 18         2632 of         2690 points in       3 batches and        7 microbatches, Max-NSigAt=       5 Max-NSgAt2=       5
 IPart= 14         3099 of         3322 points in       3 batches and       24 microbatches, Max-NSigAt=       5 Max-NSgAt2=       5
 IPart= 16         3281 of         3596 points in       4 batches and        8 microbatches, Max-NSigAt=       5 Max-NSgAt2=       5
 IPart=  4         2804 of         2964 points in       3 batches and       20 microbatches, Max-NSigAt=       5 Max-NSgAt2=       5
 IPart= 26         2924 of         2924 points in       2 batches and        6 microbatches, Max-NSigAt=       5 Max-NSgAt2=       5
 IPart=  8         2799 of         2964 points in       3 batches and       27 microbatches, Max-NSigAt=       5 Max-NSgAt2=       5
 IPart= 19         3323 of         3568 points in       4 batches and        8 microbatches, Max-NSigAt=       5 Max-NSgAt2=       5
 IPart= 10         2800 of         2886 points in       3 batches and        7 microbatches, Max-NSigAt=       5 Max-NSgAt2=       5
 IPart=  2         2767 of         2988 points in       3 batches and       27 microbatches, Max-NSigAt=       5 Max-NSgAt2=       5
 IPart=  0         2644 of         2964 points in       3 batches and       31 microbatches, Max-NSigAt=       5 Max-NSgAt2=       5
 IPart= 31         3275 of         3336 points in       3 batches and       31 microbatches, Max-NSigAt=       5 Max-NSgAt2=       5
 IPart= 23         2355 of         2360 points in       2 batches and        7 microbatches, Max-NSigAt=       5 Max-NSgAt2=       5
 IPart=  3         3083 of         3160 points in       3 batches and       23 microbatches, Max-NSigAt=       5 Max-NSgAt2=       5
 IPart=  5         3689 of         4200 points in       6 batches and       60 microbatches, Max-NSigAt=       5 Max-NSgAt2=       5
 IPart= 11         3297 of         3596 points in       4 batches and       47 microbatches, Max-NSigAt=       5 Max-NSgAt2=       5
 IPart= 29         3575 of         3746 points in       4 batches and       19 microbatches, Max-NSigAt=       5 Max-NSgAt2=       5
 IPart=  7         3598 of         3968 points in       5 batches and       44 microbatches, Max-NSigAt=       5 Max-NSgAt2=       5
 IPart= 12         2721 of         2732 points in       2 batches and        7 microbatches, Max-NSigAt=       5 Max-NSgAt2=       5
 IPart=  1         4404 of         4776 points in       5 batches and       11 microbatches, Max-NSigAt=       5 Max-NSgAt2=       5
 IPart= 13         4015 of         4368 points in       5 batches and       28 microbatches, Max-NSigAt=       5 Max-NSgAt2=       5
 IPart= 25         3999 of         4108 points in       4 batches and       10 microbatches, Max-NSigAt=       5 Max-NSgAt2=       5
 IPart= 20         3596 of         3596 points in       3 batches and        9 microbatches, Max-NSigAt=       5 Max-NSgAt2=       5
 IPart= 17         3894 of         4144 points in       4 batches and       15 microbatches, Max-NSigAt=       5 Max-NSgAt2=       5
 IPart= 24         3821 of         4158 points in       5 batches and       27 microbatches, Max-NSigAt=       5 Max-NSgAt2=       5
 IPart= 22         3842 of         4144 points in       4 batches and       14 microbatches, Max-NSigAt=       5 Max-NSgAt2=       5
 IPart= 28         4447 of         5000 points in       6 batches and       39 microbatches, Max-NSigAt=       5 Max-NSgAt2=       5
 IPart=  9         3894 of         4124 points in       4 batches and       12 microbatches, Max-NSigAt=       5 Max-NSgAt2=       5
 IPart= 21         3843 of         3912 points in       3 batches and       12 microbatches, Max-NSigAt=       5 Max-NSgAt2=       5
 IPart=  6         3414 of         3592 points in       4 batches and       30 microbatches, Max-NSigAt=       5 Max-NSgAt2=       5
 IPart= 30         3948 of         4144 points in       4 batches and       13 microbatches, Max-NSigAt=       5 Max-NSgAt2=       5
 IPart= 15         3778 of         4172 points in       5 batches and       45 microbatches, Max-NSigAt=       5 Max-NSgAt2=       5
 IPart= 27         3338 of         3568 points in       4 batches and       24 microbatches, Max-NSigAt=       5 Max-NSgAt2=       5
 Forces at end of L703
 I=    0 X=   4.100114123919D-02 Y=   1.379145401484D-01 Z=   2.506901697438D-02
 I=    1 X=  -3.486704726188D-03 Y=  -1.171706205351D-02 Z=  -2.133455674359D-03
 I=    2 X=   1.270424161148D-03 Y=   4.249819740251D-03 Z=  -1.454127822638D-03
 I=    3 X=  -7.204198632298D-04 Y=   4.257118026904D-03 Z=   1.793799582939D-03
 I=    4 X=   2.924988649750D-03 Y=   3.170435322805D-03 Z=   1.786456019616D-03
 I=    5 X=   1.171177851821D-05 Y=   3.968896354795D-05 Z=   7.327894449606D-06
 FrcOut:
 IF    =    36 IFX   =    51 IFXYZ =    66
 IFFX  =    81 IFFFX =   201 IFLen =    15
 IFFLen=   120 IFFFLn=     0 IEDerv=   201
 LEDerv=   773 IFroze=  1163 ICStrt= 39591
 FCEst1:  Generated internal coordinate force constants:
                1             2             3             4             5 
      1  0.650844D+00
      2 -0.122187D+00  0.276142D+00
      3 -0.221869D-01 -0.747114D-01  0.673603D+00
      4 -0.999467D-01  0.109518D-01 -0.332319D-02  0.691169D-01
      5  0.109519D-01 -0.663821D-01 -0.111679D-01 -0.584894D-02  0.511951D-01
      6  0.000000D+00  0.000000D+00 -0.361033D+00  0.000000D+00  0.000000D+00
      7 -0.308146D+00  0.498973D-02  0.106607D+00  0.177384D-01  0.571746D-03
      8 -0.495071D-02 -0.663774D-01  0.148347D-01  0.125447D-02  0.435806D-02
      9  0.103286D+00  0.974480D-02 -0.152833D+00  0.346426D-01  0.111660D-02
     10 -0.235995D+00  0.105633D+00 -0.812069D-01  0.129131D-01 -0.615149D-02
     11  0.115575D+00 -0.138500D+00  0.706706D-01 -0.683411D-02  0.918814D-02
     12 -0.812093D-01  0.645929D-01 -0.152867D+00 -0.284050D-01  0.198585D-01
     13 -0.675544D-02  0.612021D-03  0.110304D-03  0.178156D-03  0.476755D-03
     14  0.610904D-03 -0.488215D-02  0.373878D-03  0.476749D-03  0.164079D-02
     15  0.110035D-03  0.373654D-03 -0.686981D-02 -0.291439D-02 -0.980723D-02
                6             7             8             9            10 
      6  0.361033D+00
      7  0.000000D+00  0.300395D+00
      8  0.000000D+00 -0.266483D-02  0.511929D-01
      9  0.000000D+00 -0.118423D+00 -0.520434D-02  0.129756D+00
     10  0.000000D+00 -0.884228D-02  0.148733D-01 -0.172687D-01  0.228444D+00
     11  0.000000D+00 -0.311387D-02  0.918641D-02 -0.608129D-02 -0.112938D+00
     12  0.000000D+00  0.111386D-01 -0.145244D-01  0.217533D-01  0.963696D-01
     13  0.000000D+00 -0.114549D-02 -0.851218D-02 -0.223711D-02  0.348035D-02
     14  0.000000D+00  0.217222D-03  0.164003D-02  0.424228D-03 -0.141700D-02
     15  0.000000D+00  0.677735D-03  0.489404D-02  0.132360D-02  0.210600D-02
               11            12            13            14            15 
     11  0.123111D+00
     12 -0.690604D-01  0.129790D+00
     13  0.731128D-02  0.210619D-02  0.424243D-02
     14 -0.298526D-02 -0.866611D-03  0.112128D-03  0.458659D-02
     15  0.447103D-02  0.132448D-02  0.206169D-04  0.685050D-04  0.422174D-02
 Quadrupole    = 3.24486371D-01-7.11915654D-01 3.87429283D-01
                -3.37881652D-01-6.13181004D-02-2.06672221D-01
 -------------------------------------------------------------------
 Center     Atomic                   Forces (Hartrees/Bohr)
 Number     Number              X              Y              Z
 -------------------------------------------------------------------
      1        6           0.003486705    0.011717062    0.002133456
      2        1          -0.001270424   -0.004249820    0.001454128
      3        1           0.000720420   -0.004257118   -0.001793800
      4        1          -0.002924989   -0.003170435   -0.001786456
      5        1          -0.000011712   -0.000039689   -0.000007328
 -------------------------------------------------------------------
 Cartesian Forces:  Max     0.011717062 RMS     0.003824900
 From PutF, contents of force:
   1    0.1454127823D-02
   2    0.1458799846D-02
   3    0.1453518407D-02
   4    0.2586353791D-02
   5    0.2574820455D-02
   6   -0.7719822965D-02
   7   -0.5880993889D-06
   8    0.8825023409D-06
   9    0.4202448992D-04
 -----------------------------------------------------------------------------------------------
                       Internal Coordinate Forces (Hartree/Bohr or radian)
  Cent   Atom   N1       Length/X         N2         Alpha/Y        N3         Beta/Z          J
 -----------------------------------------------------------------------------------------------
      1  C 
      2  H        1   0.001454(     1)
      3  H        1   0.001459(     2)      2   0.002586(     5)
      4  H        1   0.001454(     3)      2   0.002575(     6)      3  -0.007720(     8)     0
      5  H        1   0.000042(     4)      2   0.000001(     7)      3  -0.000001(     9)     0
 -----------------------------------------------------------------------------------------------
 Internal  Forces:  Max     0.007719823 RMS     0.002967821
 Force constants in Cartesian coordinates: 
                1             2             3             4             5 
      1  0.650844D+00
      2 -0.122187D+00  0.276142D+00
      3 -0.221869D-01 -0.747114D-01  0.673603D+00
      4 -0.999467D-01  0.109518D-01 -0.332319D-02  0.691169D-01
      5  0.109519D-01 -0.663821D-01 -0.111679D-01 -0.584894D-02  0.511951D-01
      6  0.000000D+00  0.000000D+00 -0.361033D+00  0.000000D+00  0.000000D+00
      7 -0.308146D+00  0.498973D-02  0.106607D+00  0.177384D-01  0.571746D-03
      8 -0.495071D-02 -0.663774D-01  0.148347D-01  0.125447D-02  0.435806D-02
      9  0.103286D+00  0.974480D-02 -0.152833D+00  0.346426D-01  0.111660D-02
     10 -0.235995D+00  0.105633D+00 -0.812069D-01  0.129131D-01 -0.615149D-02
     11  0.115575D+00 -0.138500D+00  0.706706D-01 -0.683411D-02  0.918814D-02
     12 -0.812093D-01  0.645929D-01 -0.152867D+00 -0.284050D-01  0.198585D-01
     13 -0.675544D-02  0.612021D-03  0.110304D-03  0.178156D-03  0.476755D-03
     14  0.610904D-03 -0.488215D-02  0.373878D-03  0.476749D-03  0.164079D-02
     15  0.110035D-03  0.373654D-03 -0.686981D-02 -0.291439D-02 -0.980723D-02
                6             7             8             9            10 
      6  0.361033D+00
      7  0.000000D+00  0.300395D+00
      8  0.000000D+00 -0.266483D-02  0.511929D-01
      9  0.000000D+00 -0.118423D+00 -0.520434D-02  0.129756D+00
     10  0.000000D+00 -0.884228D-02  0.148733D-01 -0.172687D-01  0.228444D+00
     11  0.000000D+00 -0.311387D-02  0.918641D-02 -0.608129D-02 -0.112938D+00
     12  0.000000D+00  0.111386D-01 -0.145244D-01  0.217533D-01  0.963696D-01
     13  0.000000D+00 -0.114549D-02 -0.851218D-02 -0.223711D-02  0.348035D-02
     14  0.000000D+00  0.217222D-03  0.164003D-02  0.424228D-03 -0.141700D-02
     15  0.000000D+00  0.677735D-03  0.489404D-02  0.132360D-02  0.210600D-02
               11            12            13            14            15 
     11  0.123111D+00
     12 -0.690604D-01  0.129790D+00
     13  0.731128D-02  0.210619D-02  0.424243D-02
     14 -0.298526D-02 -0.866611D-03  0.112128D-03  0.458659D-02
     15  0.447103D-02  0.132448D-02  0.206169D-04  0.685050D-04  0.422174D-02
 FCInt: Cartesian first derivatives: 
                 1             2             3             4             5 
      1   0.000000D+00  0.000000D+00  0.000000D+00  0.000000D+00  0.000000D+00
      2   0.000000D+00  0.000000D+00  0.000000D+00  0.000000D+00  0.000000D+00
      3   0.000000D+00  0.000000D+00  0.000000D+00  0.000000D+00  0.000000D+00
 FCInt: Cartesian force constants: 
                1             2             3             4             5 
      1  0.650844D+00
      2 -0.122187D+00  0.276142D+00
      3 -0.221869D-01 -0.747114D-01  0.673603D+00
      4 -0.999467D-01  0.109518D-01 -0.332319D-02  0.691169D-01
      5  0.109519D-01 -0.663821D-01 -0.111679D-01 -0.584894D-02  0.511951D-01
      6  0.000000D+00  0.000000D+00 -0.361033D+00  0.000000D+00  0.000000D+00
      7 -0.308146D+00  0.498973D-02  0.106607D+00  0.177384D-01  0.571746D-03
      8 -0.495071D-02 -0.663774D-01  0.148347D-01  0.125447D-02  0.435806D-02
      9  0.103286D+00  0.974480D-02 -0.152833D+00  0.346426D-01  0.111660D-02
     10 -0.235995D+00  0.105633D+00 -0.812069D-01  0.129131D-01 -0.615149D-02
     11  0.115575D+00 -0.138500D+00  0.706706D-01 -0.683411D-02  0.918814D-02
     12 -0.812093D-01  0.645929D-01 -0.152867D+00 -0.284050D-01  0.198585D-01
     13 -0.675544D-02  0.612021D-03  0.110304D-03  0.178156D-03  0.476755D-03
     14  0.610904D-03 -0.488215D-02  0.373878D-03  0.476749D-03  0.164079D-02
     15  0.110035D-03  0.373654D-03 -0.686981D-02 -0.291439D-02 -0.980723D-02
                6             7             8             9            10 
      6  0.361033D+00
      7  0.000000D+00  0.300395D+00
      8  0.000000D+00 -0.266483D-02  0.511929D-01
      9  0.000000D+00 -0.118423D+00 -0.520434D-02  0.129756D+00
     10  0.000000D+00 -0.884228D-02  0.148733D-01 -0.172687D-01  0.228444D+00
     11  0.000000D+00 -0.311387D-02  0.918641D-02 -0.608129D-02 -0.112938D+00
     12  0.000000D+00  0.111386D-01 -0.145244D-01  0.217533D-01  0.963696D-01
     13  0.000000D+00 -0.114549D-02 -0.851218D-02 -0.223711D-02  0.348035D-02
     14  0.000000D+00  0.217222D-03  0.164003D-02  0.424228D-03 -0.141700D-02
     15  0.000000D+00  0.677735D-03  0.489404D-02  0.132360D-02  0.210600D-02
               11            12            13            14            15 
     11  0.123111D+00
     12 -0.690604D-01  0.129790D+00
     13  0.731128D-02  0.210619D-02  0.424243D-02
     14 -0.298526D-02 -0.866611D-03  0.112128D-03  0.458659D-02
     15  0.447103D-02  0.132448D-02  0.206169D-04  0.685050D-04  0.422174D-02
 Internal force constants: 
                1             2             3             4             5 
      1  0.361033D+00
      2  0.000000D+00  0.361033D+00
      3  0.000000D+00  0.000000D+00  0.361033D+00
      4  0.000000D+00  0.000000D+00  0.000000D+00  0.463237D-02
      5  0.000000D+00  0.000000D+00  0.000000D+00  0.000000D+00  0.287421D+00
      6  0.000000D+00  0.000000D+00  0.000000D+00  0.000000D+00  0.114182D+00
      7  0.000000D+00  0.000000D+00  0.000000D+00  0.000000D+00  0.232664D-01
      8  0.000000D+00  0.000000D+00  0.000000D+00  0.000000D+00  0.604050D-01
      9  0.000000D+00  0.000000D+00  0.000000D+00  0.000000D+00 -0.386464D-01
                6             7             8             9 
      6  0.287426D+00
      7  0.232836D-01  0.240505D+00
      8  0.216274D-01 -0.681726D-01  0.168631D+00
      9  0.386579D-01  0.142170D-04 -0.116578D+00  0.233412D+00
 Frcnst in PutFF: 
                1             2             3             4             5 
      1  0.361033D+00
      2  0.000000D+00  0.361033D+00
      3  0.000000D+00  0.000000D+00  0.361033D+00
      4  0.000000D+00  0.000000D+00  0.000000D+00  0.287421D+00
      5  0.000000D+00  0.000000D+00  0.000000D+00  0.114182D+00  0.287426D+00
      6  0.000000D+00  0.000000D+00  0.000000D+00  0.604050D-01  0.216274D-01
      7  0.000000D+00  0.000000D+00  0.000000D+00 -0.386464D-01  0.386579D-01
      8  0.000000D+00  0.000000D+00  0.000000D+00  0.232664D-01  0.232836D-01
      9  0.000000D+00  0.000000D+00  0.000000D+00  0.000000D+00  0.000000D+00
                6             7             8             9 
      6  0.168631D+00
      7 -0.116578D+00  0.233412D+00
      8 -0.681726D-01  0.142170D-04  0.240505D+00
      9  0.000000D+00  0.000000D+00  0.000000D+00  0.463237D-02
 Force constants in internal coordinates: 
                1             2             3             4             5 
      1  0.361033D+00
      2  0.000000D+00  0.361033D+00
      3  0.000000D+00  0.000000D+00  0.361033D+00
      4  0.000000D+00  0.000000D+00  0.000000D+00  0.463237D-02
      5  0.000000D+00  0.000000D+00  0.000000D+00  0.000000D+00  0.287421D+00
      6  0.000000D+00  0.000000D+00  0.000000D+00  0.000000D+00  0.114182D+00
      7  0.000000D+00  0.000000D+00  0.000000D+00  0.000000D+00  0.232664D-01
      8  0.000000D+00  0.000000D+00  0.000000D+00  0.000000D+00  0.604050D-01
      9  0.000000D+00  0.000000D+00  0.000000D+00  0.000000D+00 -0.386464D-01
                6             7             8             9 
      6  0.287426D+00
      7  0.232836D-01  0.240505D+00
      8  0.216274D-01 -0.681726D-01  0.168631D+00
      9  0.386579D-01  0.142170D-04 -0.116578D+00  0.233412D+00
 Final forces over variables, Energy=-4.03398111D+01:
  1.45412782D-03 1.45879985D-03 1.45351841D-03 2.58635379D-03
  2.57482045D-03-7.71982296D-03-5.88099389D-07 8.82502341D-07
  4.20244899D-05

 GradGradGradGradGradGradGradGradGradGradGradGradGradGradGradGradGradGrad
 Berny optimization.
 Search for a local minimum.
 Step number   1 out of a maximum of   50
 All quantities printed in internal units (Hartrees-Bohrs-Radians)
 Second derivative matrix not updated -- first step.
 The second derivative matrix:
                          R1        R2        R3        A2        A3
           R1           0.36103
           R2           0.00000   0.36103
           R3           0.00000   0.00000   0.36103
           A2           0.00000   0.00000   0.00000   0.28742
           A3           0.00000  -0.00000  -0.00000   0.11418   0.28743
           D3           0.00000  -0.00000   0.00000   0.06040   0.02163
           DH1          0.00000   0.00000   0.00000  -0.03865   0.03866
           ANG1         0.00000  -0.00000  -0.00000   0.02327   0.02328
           BB           0.00000  -0.00000   0.00000  -0.00000   0.00000
                          D3        DH1      ANG1       BB
           D3           0.16863
           DH1         -0.11658   0.23341
           ANG1        -0.06817   0.00001   0.24051
           BB          -0.00000   0.00000  -0.00000   0.00463
 ITU=  0
     Eigenvalues ---    0.05338   0.14844   0.24330   0.34984   0.36103
     Eigenvalues ---    0.36103   0.36103   0.422421000.00000
 RFO step:  Lambda=-9.10020862D-04 EMin= 5.33835528D-02
 Linear search not attempted -- first point.
 Variable       Old X    -DE/DX   Delta X   Delta X   Delta X     New X
                                 (Linear)    (Quad)   (Total)
    R1        2.03920   0.00145   0.00000   0.00402   0.00402   2.04322
    R2        2.03920   0.00146   0.00000   0.00403   0.00403   2.04323
    R3        2.03920   0.00145   0.00000   0.00402   0.00402   2.04322
    A2        2.04403   0.00259   0.00000   0.01894   0.01894   2.06297
    A3        2.04417   0.00257   0.00000   0.01867   0.01867   2.06283
    D3        3.71950  -0.00772   0.00000  -0.10303  -0.10303   3.61647
   DH1        1.85965  -0.00000   0.00000  -0.05122  -0.05122   1.80843
   ANG1       1.74329   0.00000   0.00000  -0.03271  -0.03271   1.71057
    BB        7.55890   0.00004   0.00000   0.00000   0.00000   7.55890
         Item               Value     Threshold  Converged?
 Maximum Force            0.007720     0.000450     NO 
 RMS     Force            0.003148     0.000300     NO 
 Maximum Displacement     0.103035     0.001800     NO 
 RMS     Displacement     0.040914     0.001200     NO 
 Predicted change in Energy=-4.618637D-04
 GradGradGradGradGradGradGradGradGradGradGradGradGradGradGradGradGradGrad

 ---------------------------------------------------------------------------------------------------
                            Z-MATRIX (ANGSTROMS AND DEGREES)
   CD    Cent   Atom    N1       Length/X        N2       Alpha/Y        N3        Beta/Z          J
 ---------------------------------------------------------------------------------------------------
      1      1  C 
      2      2  H        1   1.081226(     1)
      3      3  H        1   1.081233(     2)      2  118.199(     5)
      4      4  H        1   1.081225(     3)      2  118.192(     6)      3  207.208(     8)      0
      5      5  H        1   4.000000(     4)      2   98.008(     7)      3  103.616(     9)      0
 ---------------------------------------------------------------------------------------------------
                         Z-Matrix orientation:                         
 ---------------------------------------------------------------------
 Center     Atomic      Atomic             Coordinates (Angstroms)
 Number     Number       Type             X           Y           Z
 ---------------------------------------------------------------------
      1          6           0        0.000000    0.000000    0.000000
      2          1           0        0.000000    0.000000    1.081226
      3          1           0        0.952900    0.000000   -0.510927
      4          1           0       -0.847516    0.435722   -0.510795
      5          1           0       -0.932438   -3.849675   -0.557279
 ---------------------------------------------------------------------
                    Distance matrix (angstroms):
                    1          2          3          4          5
     1  C    0.000000
     2  H    1.081226   0.000000
     3  H    1.081233   1.855524   0.000000
     4  H    1.081225   1.855443   1.852390   0.000000
     5  H    4.000000   4.286507   4.286799   4.286490   0.000000
 Symmetry turned off by external request.
 Stoichiometry    CH4
 Framework group  C1[X(CH4)]
 Deg. of freedom     9
 Full point group                 C1      NOp   1
 Rotational constants (GHZ):    145.8142877     29.5102924     29.4970108
 Standard basis: Aug-CC-pVTZ (5D, 7F)
   138 basis functions,   180 primitive gaussians,   155 cartesian basis functions
     5 alpha electrons        5 beta electrons
       nuclear repulsion energy        10.8297823950 Hartrees.
 NAtoms=    5 NActive=    5 NUniq=    5 SFac= 1.00D+00 NAtFMM=   60 NAOKFM=F Big=F
 Integral buffers will be    131072 words long.
 Raffenetti 2 integral format.
 Two-electron integral symmetry is turned off.
 Nuclear repulsion after empirical dispersion term =       10.8294629228 Hartrees.
 One-electron integrals computed using PRISM.
 NBasis=   138 RedAO= T EigKep=  1.09D-04  NBF=   138
 NBsUse=   138 1.00D-06 EigRej= -1.00D+00 NBFU=   138
 ExpMin= 2.53D-02 ExpMax= 8.24D+03 ExpMxC= 2.81D+02 IAcc=3 IRadAn=         5 AccDes= 0.00D+00
 Harris functional with IExCor= 4639 and IRadAn=       5 diagonalized for initial guess.
 HarFok:  IExCor= 4639 AccDes= 0.00D+00 IRadAn=         5 IDoV= 1 UseB2=F ITyADJ=14
 ICtDFT=  3500011 ScaDFX=  1.000000  1.000000  1.000000  1.000000
 FoFCou: FMM=F IPFlag=           0 FMFlag=      100000 FMFlg1=           0
         NFxFlg=           0 DoJE=T BraDBF=F KetDBF=T FulRan=T
         wScrn=  0.000000 ICntrl=     500 IOpCl=  0 I1Cent=   200000004 NGrid=           0
         NMat0=    1 NMatS0=      1 NMatT0=    0 NMatD0=    1 NMtDS0=    0 NMtDT0=    0
 Symmetry not used in FoFCou.
 Mixing orbitals, IMix= 1 IMixAn=  0 NRI=1 NE=    5 Coef=  7.07106781D-01  7.07106781D-01
 Mixing orbitals, IMix= 1 IMixAn=  0 NRI=1 NE=    5 Coef= -7.07106781D-01  7.07106781D-01
 Initial guess <Sx>= 0.0000 <Sy>= 0.0000 <Sz>= 0.0000 <S**2>= 1.0000 S= 0.6180
 Keep R1 and R2 ints in memory in canonical form, NReq=186088063.
 Requested convergence on RMS density matrix=1.00D-08 within 128 cycles.
 Requested convergence on MAX density matrix=1.00D-06.
 Requested convergence on             energy=1.00D-06.
 No special actions if energy rises.
 SCF Done:  E(UwB97XD) =  -40.3405677913     A.U. after   11 cycles
            NFock= 11  Conv=0.31D-08     -V/T= 2.0070
 <Sx>= 0.0000 <Sy>= 0.0000 <Sz>= 0.0000 <S**2>= 1.0020 S= 0.6189
 <L.S>=  0.00000000000    
 Annihilation of the first spin contaminant:
 S**2 before annihilation     1.0020,   after     0.0298
 DipInt: DoE/N= T T RetVal/Mat= T F Init=T NMatP=  1 IDeriv=0 Min/MaxMlt=  1  1
 Entering OneElI...
 Multipole integrals L=1 to 1 MinM= 0 MaxM= 0.
 Requested accuracy = 0.1000D-12
 PrsmSu:  NPrtUS=   1 ThrOK=F IAlg=1 NPAlg=1 LenDen=           0.
 Prism:   IPart=     0 DynPar=F LinDyn=F Incr=          12.
 PRISM was handed   419324750 working-precision words and  1263 shell-pairs
 IPart=  0 NShTot=        1263 NBatch=          35 AvBLen=        36.1
 PrSmSu:  NxtVal=             13.
 Entering OneElI...
 Calculate overlap and kinetic energy integrals
    NBasis = 155  MinDer = 1  MaxDer = 1
 Requested accuracy = 0.1000D-12
 PrsmSu:  NPrtUS=  32 ThrOK=T IAlg=1 NPAlg=1 LenDen=           0.
 Prism:   IPart=     0 DynPar=F LinDyn=F Incr=           1.
 PRISM was handed    13083027 working-precision words and  1275 shell-pairs
 PRISM was handed    13083027 working-precision words and  1275 shell-pairs
 PRISM was handed    13083027 working-precision words and  1275 shell-pairs
 PRISM was handed    13083027 working-precision words and  1275 shell-pairs
 PRISM was handed    13083027 working-precision words and  1275 shell-pairs
 PRISM was handed    13083027 working-precision words and  1275 shell-pairs
 PRISM was handed    13083027 working-precision words and  1275 shell-pairs
 PRISM was handed    13083027 working-precision words and  1275 shell-pairs
 PRISM was handed    13083027 working-precision words and  1275 shell-pairs
 PRISM was handed    13083027 working-precision words and  1275 shell-pairs
 PRISM was handed    13083027 working-precision words and  1275 shell-pairs
 PRISM was handed    13083027 working-precision words and  1275 shell-pairs
[...]
 Mulliken charges and spin densities:
               1          2
     1  C   -1.046343   1.037153
     2  H    0.348356  -0.011812
     3  H    0.348361  -0.011849
     4  H    0.348374  -0.011820
     5  H    0.001252  -1.001672
 Sum of Mulliken charges =  -0.00000   0.00000
 Mulliken charges and spin densities with hydrogens summed into heavy atoms:
               1          2
     1  C   -0.000000   0.000000
 APT charges:
               1
     1  C   -0.136151
     2  H    0.046185
     3  H    0.045841
     4  H    0.045855
     5  H   -0.001730
 Sum of APT charges =   0.00000
 APT charges with hydrogens summed into heavy atoms:
               1
     1  C    0.000000
 Electronic spatial extent (au):  <R**2>=             90.2546
 Charge=             -0.0000 electrons
 Dipole moment (field-independent basis, Debye):
    X=             -0.0000    Y=             -0.0048    Z=             -0.0000  Tot=              0.0048
 Quadrupole moment (field-independent basis, Debye-Ang):
   XX=             -8.6088   YY=            -10.5728   ZZ=             -8.6084
   XY=              0.0038   XZ=              0.0000   YZ=              0.0023
 Traceless Quadrupole moment (field-independent basis, Debye-Ang):
   XX=              0.6545   YY=             -1.3094   ZZ=              0.6549
   XY=              0.0038   XZ=              0.0000   YZ=              0.0023
 Octapole moment (field-independent basis, Debye-Ang**2):
  XXX=             -0.1014  YYY=             17.5977  ZZZ=              0.8403  XYY=             -0.0380
  XXY=              5.6735  XXZ=             -0.9465  XZZ=             -0.0339  YZZ=              5.6753
  YYZ=             -0.0299  XYZ=             -0.0015
 Hexadecapole moment (field-independent basis, Debye-Ang**3):
 XXXX=            -16.8987 YYYY=           -153.8696 ZZZZ=            -16.8966 XXXY=              0.4063
 XXXZ=             -0.0019 YYYX=              0.4248 YYYZ=              0.3359 ZZZX=             -0.0019
 ZZZY=              0.3193 XXYY=            -28.3285 XXZZ=             -5.6324 YYZZ=            -28.3282
 XXYZ=              0.1077 YYXZ=             -0.0008 ZZXY=              0.1354
 N-N= 1.086035239157D+01 E-N=-1.146088438707D+02  KE= 4.006427707297D+01
  Exact polarizability:  20.875  -0.008  22.316   0.000  -0.006  20.869
 Approx polarizability:  17.889   0.001  16.963   0.000   0.001  17.889
                          Isotropic Fermi Contact Couplings
        Atom                 a.u.       MegaHertz       Gauss      10(-4) cm-1
     1  C(13)              0.01750       9.83870       3.51069       3.28184
     2  H(1)              -0.01400     -31.28453     -11.16310     -10.43540
     3  H(1)              -0.01400     -31.29075     -11.16532     -10.43747
     4  H(1)              -0.01400     -31.28933     -11.16481     -10.43700
     5  H(1)              -0.29164    -651.79704    -232.57738    -217.41609
 --------------------------------------------------------
       Center         ----  Spin Dipole Couplings  ----
                      3XX-RR        3YY-RR        3ZZ-RR
 --------------------------------------------------------
     1   Atom       -0.566579      1.133216     -0.566637
     2   Atom       -0.075835     -0.001507      0.077342
     3   Atom        0.039041     -0.001495     -0.037546
     4   Atom        0.038993     -0.001443     -0.037549
     5   Atom       -0.002823      0.005647     -0.002823
 --------------------------------------------------------
                        XY            XZ            YZ
 --------------------------------------------------------
     1   Atom       -0.002863      0.000002     -0.001647
     2   Atom       -0.000101      0.000009     -0.001510
     3   Atom       -0.001362     -0.066325      0.000676
     4   Atom        0.001538      0.066322      0.000896
     5   Atom       -0.000055      0.000000     -0.000043
 --------------------------------------------------------


 ---------------------------------------------------------------------------------
              Anisotropic Spin Dipole Couplings in Principal Axis System
 ---------------------------------------------------------------------------------

       Atom             a.u.   MegaHertz   Gauss  10(-4) cm-1        Axes

              Baa    -0.5666   -76.037   -27.132   -25.363  0.0091  0.0010  1.0000
     1 C(13)  Bbb    -0.5666   -76.030   -27.129   -25.361  1.0000  0.0017 -0.0091
              Bcc     1.1332   152.068    54.261    50.724 -0.0017  1.0000 -0.0010
 
              Baa    -0.0758   -40.462   -14.438   -13.497  1.0000  0.0014 -0.0000
     2 H(1)   Bbb    -0.0015    -0.819    -0.292    -0.273 -0.0014  0.9998  0.0191
              Bcc     0.0774    41.281    14.730    13.770  0.0001 -0.0191  0.9998
 
              Baa    -0.0758   -40.464   -14.438   -13.497  0.5000  0.0013  0.8660
     3 H(1)   Bbb    -0.0015    -0.813    -0.290    -0.271  0.0160  0.9998 -0.0107
              Bcc     0.0774    41.277    14.729    13.768  0.8659 -0.0192 -0.4999
 
              Baa    -0.0759   -40.470   -14.441   -13.499 -0.5001 -0.0001  0.8660
     4 H(1)   Bbb    -0.0015    -0.792    -0.282    -0.264 -0.0196  0.9997 -0.0112
              Bcc     0.0773    41.262    14.723    13.763  0.8657  0.0226  0.5000
 
              Baa    -0.0028    -1.507    -0.538    -0.503 -0.4896  0.0013  0.8719
     5 H(1)   Bbb    -0.0028    -1.506    -0.538    -0.503  0.8719  0.0081  0.4896
              Bcc     0.0056     3.013     1.075     1.005 -0.0064  1.0000 -0.0051
 

 ---------------------------------------------------------------------------------

 Calling FoFJK, ICntrl=    100127 FMM=F ISym2X=0 I1Cent= 0 IOpClX= 1 NMat=1 NMatS=1 NMatT=0.
 Full mass-weighted force constant matrix:
 Low frequencies ---  -96.6786  -13.7204  -12.9488  -11.6157   -0.0007    0.0006
 Low frequencies ---    0.0014   54.9367   93.5932
 ******    1 imaginary frequencies (negative Signs) ****** 
 Diagonal vibrational polarizability:
        0.1091447       7.9243081       0.0710356
 Harmonic frequencies (cm**-1), IR intensities (KM/Mole), Raman scattering
 activities (A**4/AMU), depolarization ratios for plane and unpolarized
 incident light, reduced masses (AMU), force constants (mDyne/A),
 and normal coordinates:
                      1                      2                      3
                      A                      A                      A
 Frequencies --    -96.6700                53.8037                90.0736
 Red. masses --      1.0601                 1.0126                 1.0126
 Frc consts  --      0.0058                 0.0017                 0.0048
 IR Inten    --  0.1084E-02             0.6395E-02             0.1242E-01
  Atom  AN      X      Y      Z        X      Y      Z        X      Y      Z
     1   6    -0.00  -0.07  -0.00     0.02  -0.00  -0.00     0.00   0.00   0.02
     2   1    -0.00  -0.07  -0.00     0.02  -0.02  -0.00    -0.00   0.77   0.02
     3   1    -0.00  -0.06  -0.00     0.02   0.68  -0.00     0.00  -0.38   0.02
     4   1     0.00  -0.04  -0.00     0.02  -0.66   0.00     0.00  -0.41   0.02
     5   1     0.00   0.99   0.00    -0.31   0.02   0.01    -0.01   0.02  -0.31
                      4                      5                      6
                      A                      A                      A
 Frequencies --    525.8459              1409.6154              1409.7074
 Red. masses --      1.2306                 1.1019                 1.1019
 Frc consts  --      0.2005                 1.2900                 1.2902
 IR Inten    --   81.19                  2.891                  2.883    
  Atom  AN      X      Y      Z        X      Y      Z        X      Y      Z
     1   6    -0.00   0.14  -0.00    -0.09  -0.00   0.01     0.01   0.00   0.09
     2   1     0.00  -0.58  -0.00     0.80   0.00   0.01    -0.10   0.00   0.07
     3   1     0.00  -0.57   0.00     0.10  -0.00   0.31    -0.40  -0.00  -0.63
     4   1     0.00  -0.57   0.00     0.19   0.00  -0.45     0.36  -0.00  -0.54
     5   1     0.00   0.02   0.00    -0.00  -0.00  -0.00    -0.00  -0.00   0.00
                      7                      8                      9
                      A                      A                      A
 Frequencies --   3121.9864              3303.0100              3303.2428
 Red. masses --      1.0078                 1.1185                 1.1185
 Frc consts  --      5.7876                 7.1899                 7.1908
 IR Inten    --  0.1932E-01              4.299                  4.265    
  Atom  AN      X      Y      Z        X      Y      Z        X      Y      Z
     1   6    -0.00   0.00  -0.00    -0.01   0.00   0.10     0.10   0.00   0.01
     2   1    -0.00   0.00   0.58    -0.00   0.00  -0.81     0.02   0.00  -0.05
     3   1     0.50   0.00  -0.29     0.40  -0.00  -0.21    -0.58   0.00   0.35
     4   1    -0.50  -0.00  -0.29    -0.32  -0.00  -0.17    -0.63  -0.00  -0.37
     5   1    -0.00   0.00  -0.00     0.00   0.00  -0.00    -0.00   0.00  -0.00

 -------------------
 - Thermochemistry -
 -------------------
 Temperature   298.150 Kelvin.  Pressure   1.00000 Atm.
 Atom     1 has atomic number  6 and mass  12.00000
 Atom     2 has atomic number  1 and mass   1.00783
 Atom     3 has atomic number  1 and mass   1.00783
 Atom     4 has atomic number  1 and mass   1.00783
 Atom     5 has atomic number  1 and mass   1.00783
 Molecular mass:    16.03130 amu.
 Principal axes and moments of inertia in atomic units:
                           1         2         3
     Eigenvalues --    12.55356  60.23495  60.23572
           X           -0.00651  -0.01216   0.99990
           Y            0.99997   0.00510   0.00657
           Z           -0.00518   0.99991   0.01212
 This molecule is an asymmetric top.
 Rotational symmetry number  1.
 Rotational temperatures (Kelvin)      6.89954     1.43793     1.43791
 Rotational constants (GHZ):         143.76330    29.96170    29.96131
    1 imaginary frequencies ignored.
 Zero-point vibrational energy      79056.9 (Joules/Mol)
                                   18.89506 (Kcal/Mol)
 Warning -- explicit consideration of   3 degrees of freedom as
           vibrations may cause significant error
 Vibrational temperatures:     77.41   129.60   756.57  2028.12  2028.25
          (Kelvin)           4491.84  4752.29  4752.62
 
 Zero-point correction=                           0.030111 (Hartree/Particle)
 Thermal correction to Energy=                    0.034744
 Thermal correction to Enthalpy=                  0.035689
 Thermal correction to Gibbs Free Energy=         0.006381
 Sum of electronic and zero-point Energies=            -40.311665
 Sum of electronic and thermal Energies=               -40.307032
 Sum of electronic and thermal Enthalpies=             -40.306088
 Sum of electronic and thermal Free Energies=          -40.335396
 
                     E (Thermal)             CV                S
                      KCal/Mol        Cal/Mol-Kelvin    Cal/Mol-Kelvin
 Total                   21.802             11.292             61.684
 Electronic               0.000              0.000              0.000
 Translational            0.889              2.981             34.261
 Rotational               0.889              2.981             18.461
 Vibrational             20.025              5.330              8.962
 Vibration     1          0.596              1.976              4.672
 Vibration     2          0.602              1.956              3.658
 Vibration     3          0.881              1.193              0.597
                       Q            Log10(Q)             Ln(Q)
 Total Bot       0.116191D-02         -2.934826         -6.757686
 Total V=0       0.822870D+11         10.915331         25.133479
 Vib (Bot)       0.190627D-12        -12.719815        -29.288457
 Vib (Bot)    1  0.384070D+01          0.584411          1.345655
 Vib (Bot)    2  0.228260D+01          0.358431          0.825317
 Vib (Bot)    3  0.305312D+00         -0.515256         -1.186422
 Vib (V=0)       0.135002D+02          1.130342          2.602708
 Vib (V=0)    1  0.437311D+01          0.640791          1.475475
 Vib (V=0)    2  0.283673D+01          0.452817          1.042650
 Vib (V=0)    3  0.108585D+01          0.035768          0.082359
 Electronic      0.100000D+01          0.000000          0.000000
 Translational   0.252295D+07          6.401908         14.740939
 Rotational      0.241591D+04          3.383081          7.789832
 -------------------------------------------------------------------
 Center     Atomic                   Forces (Hartrees/Bohr)
 Number     Number              X              Y              Z
 -------------------------------------------------------------------
      1        6           0.000004277    0.000058194    0.000003411
      2        1          -0.000002315    0.000001301   -0.000000451
      3        1          -0.000002235    0.000000386   -0.000002248
      4        1          -0.000000009   -0.000000790   -0.000000831
      5        1           0.000000282   -0.000059090    0.000000119
 -------------------------------------------------------------------
 Cartesian Forces:  Max     0.000059090 RMS     0.000021490
 -----------------------------------------------------------------------------------------------
                       Internal Coordinate Forces (Hartree/Bohr or radian)
  Cent   Atom   N1       Length/X         N2         Alpha/Y        N3         Beta/Z          J
 -----------------------------------------------------------------------------------------------
      1  C 
      2  H        1  -0.000000(     1)
      3  H        1  -0.000001(     2)      2   0.000006(     5)
      4  H        1   0.000000(     3)      2   0.000001(     6)      3  -0.000001(     8)     0
      5  H        1   0.000059(     4)      2   0.000001(     7)      3   0.000001(     9)     0
 -----------------------------------------------------------------------------------------------
 Internal  Forces:  Max     0.000059091 RMS     0.000019826

 GradGradGradGradGradGradGradGradGradGradGradGradGradGradGradGradGradGrad
 Berny optimization.
 Search for a local minimum.
 Step number   1 out of a maximum of    2
 All quantities printed in internal units (Hartrees-Bohrs-Radians)
 Second derivative matrix not updated -- analytic derivatives used.
 The second derivative matrix:
                          R1        R2        R3        A2        A3
           R1           0.37159
           R2           0.00004   0.37169
           R3           0.00004   0.00005   0.37169
           A2           0.01584   0.00008  -0.01588   0.18899
           A3           0.01584  -0.01588   0.00008   0.09452   0.18898
           D3          -0.00001   0.00004  -0.00002  -0.00025  -0.00028
           DH1          0.00000  -0.00006   0.00005  -0.00002   0.00002
           ANG1        -0.00006   0.00002   0.00002  -0.00003  -0.00003
           BB          -0.00002  -0.00003  -0.00003   0.00001   0.00001
                          D3        DH1      ANG1       BB
           D3           0.00897
           DH1         -0.00013   0.00017
           ANG1        -0.00007  -0.00001   0.00022
           BB           0.00015  -0.00003  -0.00005  -0.00033
 ITU=  0
     Eigenvalues ---    0.00017   0.00022   0.00897   0.09355   0.27567
     Eigenvalues ---    0.37174   0.37256   0.379421000.00000
 Angle between quadratic step and forces=  78.52 degrees.
 Linear search not attempted -- first point.
 Variable       Old X    -DE/DX   Delta X   Delta X   Delta X     New X
                                 (Linear)    (Quad)   (Total)
    R1        2.03766  -0.00000   0.00000  -0.00000  -0.00000   2.03766
    R2        2.03768  -0.00000   0.00000  -0.00000  -0.00000   2.03768
    R3        2.03768   0.00000   0.00000   0.00000   0.00000   2.03768
    A2        2.09442   0.00001   0.00000   0.00004   0.00004   2.09446
    A3        2.09448   0.00000   0.00000  -0.00001  -0.00001   2.09446
    D3        3.13820  -0.00000   0.00000  -0.00007  -0.00007   3.13813
   DH1        1.56485   0.00000   0.00000   0.00327   0.00327   1.56812
   ANG1       1.56611   0.00000   0.00000   0.00548   0.00548   1.57158
    BB        7.55890   0.00006   0.00000   0.00000   0.00000   7.55890
         Item               Value     Threshold  Converged?
 Maximum Force            0.000006     0.000450     YES
 RMS     Force            0.000002     0.000300     YES
 Maximum Displacement     0.005476     0.001800     NO 
 RMS     Displacement     0.002126     0.001200     NO 
 Predicted change in Energy=-4.294775D-09
 GradGradGradGradGradGradGradGradGradGradGradGradGradGradGradGradGradGrad


 Test job not archived.
 1\1\GINC-NODE-6-7\Freq\UwB97XD\Aug-CC-pVTZ\C1H4\CAVALLOTTI\03-Jun-2023
 \1\\#N Geom=AllCheck Guess=TCheck SCRF=Check Test GenChk UwB97XD/Aug-C
 C-pVTZ Freq\\geom 0\\0,1\C\H,1,R1\H,1,R2,2,A2\H,1,R3,2,A3,3,D3,0\H,1,B
 B,2,ANG1,3,DH1,0\\R1=1.0782833\R2=1.07829422\R3=1.078292\A2=120.001626
 \A3=120.00464417\D3=179.80564408\DH1=89.65910224\ANG1=89.73138418\BB=4
 .\\Version=EM64L-G09RevD.01\HF=-40.3417762\S2=1.002431\S2-1=0.\S2A=0.0
 31767\RMSD=7.481e-10\RMSF=2.149e-05\ZeroPoint=0.0301112\Thermal=0.0347
 444\Dipole=-0.0000144,-0.0018857,-0.000014\DipoleDeriv=0.0181981,0.000
 7622,0.0000105,0.0009092,-0.445245,0.0006386,0.0000112,0.0005491,0.018
 5942,0.0436895,-0.0001846,-0.0000173,-0.0002327,0.1503961,0.0018414,-0
 .0000092,0.0024948,-0.0555302,-0.0306694,0.0021827,0.0424785,0.0015224
 ,0.1494298,-0.0011069,0.0423222,-0.0014236,0.0187636,-0.0306132,-0.002
 7093,-0.0424709,-0.0021387,0.1494004,-0.0012612,-0.0423238,-0.0015366,
 0.0187769,-0.000605,-0.0000511,-0.0000008,-0.0000602,-0.0039813,-0.000
 1119,-0.0000005,-0.0000837,-0.0006045\Polar=20.8749698,-0.0075491,22.3
 156159,0.0001579,-0.0061192,20.8694802\PG=C01 [X(C1H4)]\NImag=1\\0.619
 46999,0.00100084,0.02459176,0.00001011,0.00057546,0.61947937,-0.054863
 49,-0.00007863,-0.00000063,0.04551314,-0.00007486,-0.00853909,0.000094
 23,0.00007280,0.00314282,0.00000024,-0.00002145,-0.35809061,-0.0000013
 1,-0.00000069,0.37158666,-0.28230729,-0.00006814,0.13138624,0.00467588
 ,-0.00000385,-0.00385315,0.29010138,0.00004537,-0.00831008,-0.00011646
 ,0.00000095,0.00273686,-0.00000276,0.00003036,0.00287851,0.13141861,-0
 .00005765,-0.13068518,0.02358082,0.00000246,-0.00675244,-0.14126144,0.
 00006575,0.12710221,-0.28229537,-0.00085869,-0.13139630,0.00467703,0.0
 0000719,0.00385431,-0.01247605,-0.00006507,-0.01373326,0.29008931,-0.0
 0097629,-0.00829487,-0.00056917,0.00000439,0.00272724,0.00000913,0.000
 01406,0.00276627,0.00000168,0.00094772,0.00288368,-0.13142937,-0.00050
 516,-0.13070019,-0.02357889,-0.00007963,-0.00675121,0.01373222,0.00004
 705,0.01033543,0.14127169,0.00055278,0.12711625,-0.00000383,0.00000463
 ,0.00000058,-0.00000257,-0.00000129,-0.00000010,0.00000608,-0.00001160
 ,-0.00000473,0.00000508,0.00001013,0.00000435,-0.00000476,0.00000496,0
 .00055228,0.00001594,0.00000049,-0.00006783,0.00001577,0.00002756,-0.0
 0007156,-0.00001224,-0.00003114,-0.00008231,-0.00001504,-0.00000187,-0
 .00033057,0.00000041,0.00000880,-0.00000340,0.,-0.00001637,0.00000759,
 -0.00000388,0.00000643,-0.00000002,0.00000356,0.00000557,-0.00000028,-
 0.00000010,-0.00000443,-0.00000388\\-0.00000428,-0.00005819,-0.0000034
 1,0.00000232,-0.00000130,0.00000045,0.00000223,-0.00000039,0.00000225,
 0.,0.00000079,0.00000083,-0.00000028,0.00005909,-0.00000012\\\@


 THE UNDERLYING PHYSICAL LAWS NECESSARY FOR THE 
 MATHEMATICAL THEORY OF A LARGE PART OF PHYSICS AND THE
 WHOLE OF CHEMISTRY ARE THUS COMPLETELY KNOWN, AND THE
 DIFFICULTY IS ONLY THAT THE EXACT APPLICATION OF THESE
 LAWS LEADS TO EQUATIONS MUCH TOO COMPLICATED 
 TO BE SOLUBLE.

                                        -- P. A. M. DIRAC, 1929
 Job cpu time:       0 days  0 hours  7 minutes  2.4 seconds.
 File lengths (MBytes):  RWF=     66 Int=      0 D2E=      0 Chk=      3 Scr=      1
 Normal termination of Gaussian 09 at Sat Jun  3 08:56:03 2023.
