 Entering Gaussian System, Link 0=g09
 Input=geom.com
 Output=geom.log
 Initial command:
 /software/cinetica/g09d1/g09d01/d01/build-node-6-2-59348/src/main/l1.exe "/scratch/cc/140711/Gau-171017.inp" -scrdir="/scratch/cc/140711/"
 Entering Link 1 = /software/cinetica/g09d1/g09d01/d01/build-node-6-2-59348/src/main/l1.exe PID=    171018.
  
 Copyright (c) 1988,1990,1992,1993,1995,1998,2003,2009,2013,
            Gaussian, Inc.  All Rights Reserved.
  
 This is part of the Gaussian(R) 09 program.  It is based on
 the Gaussian(R) 03 system (copyright 2003, Gaussian, Inc.),
 the Gaussian(R) 98 system (copyright 1998, Gaussian, Inc.),
 the Gaussian(R) 94 system (copyright 1995, Gaussian, Inc.),
 the Gaussian 92(TM) system (copyright 1992, Gaussian, Inc.),
 the Gaussian 90(TM) system (copyright 1990, Gaussian, Inc.),
 the Gaussian 88(TM) system (copyright 1988, Gaussian, Inc.),
 the Gaussian 86(TM) system (copyright 1986, Carnegie Mellon
 University), and the Gaussian 82(TM) system (copyright 1983,
 Carnegie Mellon University). Gaussian is a federally registered
 trademark of Gaussian, Inc.
  
 This software contains proprietary and confidential information,
 including trade secrets, belonging to Gaussian, Inc.
  
 This software is provided under written license and may be
 used, copied, transmitted, or stored only in accord with that
 written license.
  
 The following legend is applicable only to US Government
 contracts under FAR:
  
                    RESTRICTED RIGHTS LEGEND
  
 Use, reproduction and disclosure by the US Government is
 subject to restrictions as set forth in subparagraphs (a)
 and (c) of the Commercial Computer Software - Restricted
 Rights clause in FAR 52.227-19.
  
 Gaussian, Inc.
 340 Quinnipiac St., Bldg. 40, Wallingford CT 06492
  
  
 ---------------------------------------------------------------
 Warning -- This program may not be used in any manner that
 competes with the business of Gaussian, Inc. or will provide
 assistance to any competitor of Gaussian, Inc.  The licensee
 of this program is prohibited from giving any competitor of
 Gaussian, Inc. access to this program.  By using this program,
 the user acknowledges that Gaussian, Inc. is engaged in the
 business of creating and licensing software in the field of
 computational chemistry and represents and warrants to the
 licensee that it is not a competitor of Gaussian, Inc. and that
 it will not use this program in any manner prohibited above.
 ---------------------------------------------------------------
  

 Cite this work as:
 Gaussian 09, Revision D.01,
 M. J. Frisch, G. W. Trucks, H. B. Schlegel, G. E. Scuseria, 
 M. A. Robb, J. R. Cheeseman, G. Scalmani, V. Barone, B. Mennucci, 
 G. A. Petersson, H. Nakatsuji, M. Caricato, X. Li, H. P. Hratchian, 
 A. F. Izmaylov, J. Bloino, G. Zheng, J. L. Sonnenberg, M. Hada, 
 M. Ehara, K. Toyota, R. Fukuda, J. Hasegawa, M. Ishida, T. Nakajima, 
 Y. Honda, O. Kitao, H. Nakai, T. Vreven, J. A. Montgomery, Jr., 
 J. E. Peralta, F. Ogliaro, M. Bearpark, J. J. Heyd, E. Brothers, 
 K. N. Kudin, V. N. Staroverov, T. Keith, R. Kobayashi, J. Normand, 
 K. Raghavachari, A. Rendell, J. C. Burant, S. S. Iyengar, J. Tomasi, 
 M. Cossi, N. Rega, J. M. Millam, M. Klene, J. E. Knox, J. B. Cross, 
 V. Bakken, C. Adamo, J. Jaramillo, R. Gomperts, R. E. Stratmann, 
 O. Yazyev, A. J. Austin, R. Cammi, C. Pomelli, J. W. Ochterski, 
 R. L. Martin, K. Morokuma, V. G. Zakrzewski, G. A. Voth, 
 P. Salvador, J. J. Dannenberg, S. Dapprich, A. D. Daniels, 
 O. Farkas, J. B. Foresman, J. V. Ortiz, J. Cioslowski, 
 and D. J. Fox, Gaussian, Inc., Wallingford CT, 2013.
 
 ******************************************
 Gaussian 09:  EM64L-G09RevD.01 24-Apr-2013
                 3-Jun-2023 
 ******************************************
 %mem=400MW
 %chk=tmp
 %NProcShared= 32
 Will use up to   32 processors via shared memory.
 ----------------------------------------------------------------------
 # uwb97xd/aug-cc-pvtz opt=(noeig,intern,maxcyc=50) # int=ultrafine nos
 ym iop(7/33=1) guess=(mix,always)
 ----------------------------------------------------------------------
 1/6=50,10=7,11=1,14=-1,18=40,26=4,38=1/1,3;
 2/12=2,15=1,17=6,18=5,29=3,40=1/2;
 3/5=16,6=1,7=10,11=2,16=1,25=1,30=1,71=1,74=-58,75=-5,116=2/1,2,3;
 4/13=-1/1;
 5/5=2,38=5/2;
 6/7=2,8=2,9=2,10=2,28=1/1;
 7/29=1,30=1,33=1/1,2,3,16;
 1/6=50,10=7,11=1,14=-1,18=40,26=4/3(2);
 2/15=1,29=3/2;
 99//99;
 2/15=1,29=3/2;
 3/5=16,6=1,7=10,11=2,16=1,25=1,30=1,71=1,74=-58,75=-5,116=2/1,2,3;
 4/13=-1/1;
 5/5=2,38=5/2;
 7/30=1,33=1/1,2,3,16;
 1/6=50,11=1,14=-1,18=40,26=4/3(-5);
 2/15=1,29=3/2;
 6/7=2,8=2,9=2,10=2,19=2,28=1/1;
 99/9=1/99;
 ------
 geom 0
 ------
 Symbolic Z-matrix:
 Charge =  0 Multiplicity = 1
 C1
 H2                   C1   R1
 H3                   C1   R2       H2   A2
 H4                   C1   R3       H2   A3       H3   D3       0
 H21                  1    rts      2    aabs1    3    babs1    0
       Variables:
  BABS1                92.0037                   
  AABS1                91.1106                   
       Constants:
  R3                    1.0782                   
  A2                  119.9721                   
  A3                  120.0207                   
  D3                  179.8076                   
  R2                    1.0782                   
  R1                    1.0782                   
  RTS                   3.                       
 

 GradGradGradGradGradGradGradGradGradGradGradGradGradGradGradGradGradGrad
 Berny optimization.
 Initialization pass.
                       ----------------------------
                       !    Initial Parameters    !
                       ! (Angstroms and Degrees)  !
 ----------------------                            ----------------------
 !      Name          Value   Derivative information (Atomic Units)     !
 ------------------------------------------------------------------------
 !      BABS1       92.0037   estimate D2E/DX2                          !
 !      AABS1       91.1106   estimate D2E/DX2                          !
 !       R3          1.0782   Frozen                                    !
 !       A2        119.9721   Frozen                                    !
 !       A3        120.0207   Frozen                                    !
 !       D3        179.8076   Frozen                                    !
 !       R2          1.0782   Frozen                                    !
 !       R1          1.0782   Frozen                                    !
 !       RTS         3.0      Frozen                                    !
 ------------------------------------------------------------------------
 Trust Radius=3.00D-01 FncErr=1.00D-07 GrdErr=1.00D-06
 Number of steps in this run=     50 maximum allowed number of steps=    100.
 GradGradGradGradGradGradGradGradGradGradGradGradGradGradGradGradGradGrad

 ---------------------------------------------------------------------------------------------------
                            Z-MATRIX (ANGSTROMS AND DEGREES)
   CD    Cent   Atom    N1       Length/X        N2       Alpha/Y        N3        Beta/Z          J
 ---------------------------------------------------------------------------------------------------
      1      1  C 
      2      2  H        1   1.078200(     1)
      3      3  H        1   1.078200(     2)      2  119.972(     5)
      4      4  H        1   1.078200(     3)      2  120.021(     6)      3  179.808(     8)      0
      5      5  H        1   3.000000(     4)      2   91.111(     7)      3   92.004(     9)      0
 ---------------------------------------------------------------------------------------------------
                         Z-Matrix orientation:                         
 ---------------------------------------------------------------------
 Center     Atomic      Atomic             Coordinates (Angstroms)
 Number     Number       Type             X           Y           Z
 ---------------------------------------------------------------------
      1          6           0        0.000000    0.000000    0.000000
      2          1           0        0.000000    0.000000    1.078200
      3          1           0        0.934011    0.000000   -0.538645
      4          1           0       -0.933548   -0.003135   -0.539437
      5          1           0       -0.104872   -2.997602   -0.058147
 ---------------------------------------------------------------------
                    Distance matrix (angstroms):
                    1          2          3          4          5
     1  C    0.000000
     2  H    1.078200   0.000000
     3  H    1.078200   1.867235   0.000000
     4  H    1.078200   1.867692   1.867562   0.000000
     5  H    3.000000   3.207476   3.208703   3.144071   0.000000
 Symmetry turned off by external request.
 Stoichiometry    CH4
 Framework group  C1[X(CH4)]
 Deg. of freedom     9
 Full point group                 C1      NOp   1
 Rotational constants (GHZ):    143.9440706     49.2720164     49.2579238
 Standard basis: Aug-CC-pVTZ (5D, 7F)
   138 basis functions,   180 primitive gaussians,   155 cartesian basis functions
     5 alpha electrons        5 beta electrons
       nuclear repulsion energy        11.2409953697 Hartrees.
 NAtoms=    5 NActive=    5 NUniq=    5 SFac= 1.00D+00 NAtFMM=   60 NAOKFM=F Big=F
 Integral buffers will be    131072 words long.
 Raffenetti 2 integral format.
 Two-electron integral symmetry is turned off.
 Nuclear repulsion after empirical dispersion term =       11.2404198637 Hartrees.
 One-electron integrals computed using PRISM.
 NBasis=   138 RedAO= T EigKep=  1.01D-04  NBF=   138
 NBsUse=   138 1.00D-06 EigRej= -1.00D+00 NBFU=   138
 ExpMin= 2.53D-02 ExpMax= 8.24D+03 ExpMxC= 2.81D+02 IAcc=3 IRadAn=         5 AccDes= 0.00D+00
 Harris functional with IExCor= 4639 and IRadAn=       5 diagonalized for initial guess.
 HarFok:  IExCor= 4639 AccDes= 0.00D+00 IRadAn=         5 IDoV= 1 UseB2=F ITyADJ=14
 ICtDFT=  3500011 ScaDFX=  1.000000  1.000000  1.000000  1.000000
 FoFCou: FMM=F IPFlag=           0 FMFlag=      100000 FMFlg1=           0
         NFxFlg=           0 DoJE=T BraDBF=F KetDBF=T FulRan=T
         wScrn=  0.000000 ICntrl=     500 IOpCl=  0 I1Cent=   200000004 NGrid=           0
         NMat0=    1 NMatS0=      1 NMatT0=    0 NMatD0=    1 NMtDS0=    0 NMtDT0=    0
 Symmetry not used in FoFCou.
 Mixing orbitals, IMix= 1 IMixAn=  0 NRI=1 NE=    5 Coef=  7.07106781D-01  7.07106781D-01
 Mixing orbitals, IMix= 1 IMixAn=  0 NRI=1 NE=    5 Coef= -7.07106781D-01  7.07106781D-01
 Initial guess <Sx>= 0.0000 <Sy>= 0.0000 <Sz>= 0.0000 <S**2>= 1.0000 S= 0.6180
 Keep R1 and R2 ints in memory in canonical form, NReq=186089141.
 Requested convergence on RMS density matrix=1.00D-08 within 128 cycles.
 Requested convergence on MAX density matrix=1.00D-06.
 Requested convergence on             energy=1.00D-06.
 No special actions if energy rises.
 SCF Done:  E(UwB97XD) =  -40.3432384208     A.U. after   16 cycles
            NFock= 16  Conv=0.95D-08     -V/T= 2.0074
 <Sx>= 0.0000 <Sy>= 0.0000 <Sz>= 0.0000 <S**2>= 0.9545 S= 0.5975
 <L.S>=  0.00000000000    
 Annihilation of the first spin contaminant:
 S**2 before annihilation     0.9545,   after     0.0275

 **********************************************************************

            Population analysis using the SCF density.

 **********************************************************************

 Alpha  occ. eigenvalues --  -10.30031  -0.78919  -0.51170  -0.51165  -0.31776
 Alpha virt. eigenvalues --    0.00996   0.04181   0.05207   0.05241   0.11240
 Alpha virt. eigenvalues --    0.12497   0.12972   0.12974   0.14213   0.19856
 Alpha virt. eigenvalues --    0.19944   0.21671   0.21692   0.26810   0.31142
 Alpha virt. eigenvalues --    0.31149   0.31254   0.33335   0.33397   0.34156
 Alpha virt. eigenvalues --    0.35600   0.37881   0.39192   0.39282   0.40714
 Alpha virt. eigenvalues --    0.40787   0.44058   0.44197   0.44460   0.57771
 Alpha virt. eigenvalues --    0.61905   0.67141   0.67323   0.69164   0.73776
 Alpha virt. eigenvalues --    0.73918   0.79367   0.79399   0.80369   0.80606
 Alpha virt. eigenvalues --    0.80742   0.81753   0.88089   0.88591   0.88849
 Alpha virt. eigenvalues --    0.93475   0.94480   0.94512   0.97719   0.98066
 Alpha virt. eigenvalues --    1.00396   1.00471   1.01824   1.03615   1.06076
 Alpha virt. eigenvalues --    1.06092   1.10367   1.10375   1.15118   1.16941
 Alpha virt. eigenvalues --    1.17440   1.27099   1.36189   1.36642   1.36832
 Alpha virt. eigenvalues --    1.50086   1.50123   1.50567   1.50842   1.56407
 Alpha virt. eigenvalues --    1.56468   1.59216   1.68009   1.79320   1.79483
 Alpha virt. eigenvalues --    1.94185   1.94395   1.96065   2.05517   2.05542
 Alpha virt. eigenvalues --    2.06728   2.77298   2.77394   2.82948   2.97642
 Alpha virt. eigenvalues --    2.98902   2.98991   3.09429   3.34156   3.34221
 Alpha virt. eigenvalues --    3.37215   3.37881   3.38193   3.42820   3.43122
 Alpha virt. eigenvalues --    3.43396   3.48977   3.69540   3.70272   3.73389
 Alpha virt. eigenvalues --    3.73485   3.78355   3.78434   3.87054   3.87251
 Alpha virt. eigenvalues --    4.00833   4.00995   4.02155   4.14166   4.14227
 Alpha virt. eigenvalues --    4.16016   4.17531   4.17635   4.28370   4.47342
 Alpha virt. eigenvalues --    4.57005   4.57130   4.59953   4.59977   4.78870
 Alpha virt. eigenvalues --    4.79740   5.04779   5.04814   5.10054   5.10075
 Alpha virt. eigenvalues --    5.17961   5.18068   5.28081   6.05892   6.20158
 Alpha virt. eigenvalues --    6.20396   6.40212  15.93143
  Beta  occ. eigenvalues --  -10.28946  -0.74528  -0.49980  -0.49974  -0.39756
  Beta virt. eigenvalues --   -0.00006   0.04228   0.05257   0.05273   0.06353
  Beta virt. eigenvalues --    0.13261   0.13286   0.13522   0.14795   0.19807
  Beta virt. eigenvalues --    0.20063   0.20167   0.20351   0.24881   0.29899
  Beta virt. eigenvalues --    0.29958   0.30269   0.33300   0.33319   0.34150
  Beta virt. eigenvalues --    0.35044   0.37949   0.38440   0.39376   0.39492
  Beta virt. eigenvalues --    0.41065   0.41113   0.43619   0.43656   0.49893
  Beta virt. eigenvalues --    0.58157   0.66809   0.66929   0.70598   0.74102
  Beta virt. eigenvalues --    0.74223   0.78493   0.78563   0.80437   0.81109
  Beta virt. eigenvalues --    0.81399   0.82051   0.86954   0.87238   0.88130
  Beta virt. eigenvalues --    0.90915   0.92352   0.92458   0.97531   0.97535
  Beta virt. eigenvalues --    0.99000   0.99233   0.99499   1.03467   1.05906
  Beta virt. eigenvalues --    1.05932   1.10303   1.10460   1.14157   1.16098
  Beta virt. eigenvalues --    1.16529   1.20534   1.34813   1.36384   1.36857
  Beta virt. eigenvalues --    1.50556   1.50565   1.50669   1.50731   1.56908
  Beta virt. eigenvalues --    1.56964   1.60671   1.69406   1.79924   1.80085
  Beta virt. eigenvalues --    1.95239   1.95433   1.95837   2.05770   2.05786
  Beta virt. eigenvalues --    2.08866   2.45922   2.78490   2.78749   2.88772
  Beta virt. eigenvalues --    3.00429   3.02120   3.02222   3.36781   3.36847
  Beta virt. eigenvalues --    3.40092   3.40938   3.41249   3.43233   3.44379
  Beta virt. eigenvalues --    3.44672   3.50930   3.67208   3.67398   3.70608
  Beta virt. eigenvalues --    3.71359   3.72697   3.72710   3.74652   3.74703
  Beta virt. eigenvalues --    3.83403   3.83443   3.89612   3.98638   4.01980
  Beta virt. eigenvalues --    4.02429   4.16578   4.17141   4.17156   4.46877
  Beta virt. eigenvalues --    4.57269   4.57368   4.60115   4.60151   4.78392
  Beta virt. eigenvalues --    4.81673   5.05163   5.05199   5.13046   5.13070
  Beta virt. eigenvalues --    5.18534   5.18638   5.29387   6.07116   6.20729
  Beta virt. eigenvalues --    6.20965   6.41092  15.95703
          Condensed to atoms (all electrons):
               1          2          3          4          5
     1  C    6.061435   0.336321   0.336333   0.334303   0.024190
     2  H    0.336321   0.283819   0.009242   0.009464  -0.002355
     3  H    0.336333   0.009242   0.283766   0.009467  -0.002357
     4  H    0.334303   0.009464   0.009467   0.283573  -0.003015
     5  H    0.024190  -0.002355  -0.002357  -0.003015   0.984224
          Atomic-Atomic Spin Densities.
               1          2          3          4          5
     1  C    0.959517   0.015697   0.015697   0.015860  -0.008148
     2  H    0.015697  -0.029348   0.001594   0.001562   0.002869
     3  H    0.015697   0.001594  -0.029323   0.001559   0.002869
     4  H    0.015860   0.001562   0.001559  -0.028804   0.003625
     5  H   -0.008148   0.002869   0.002869   0.003625  -0.978410
 Mulliken charges and spin densities:
               1          2
     1  C   -1.092581   0.998624
     2  H    0.363509  -0.007627
     3  H    0.363550  -0.007604
     4  H    0.366209  -0.006198
     5  H   -0.000687  -0.977195
 Sum of Mulliken charges =  -0.00000  -0.00000
 Mulliken charges and spin densities with hydrogens summed into heavy atoms:
               1          2
     1  C   -0.000000  -0.000000
 Electronic spatial extent (au):  <R**2>=             65.4303
 Charge=             -0.0000 electrons
 Dipole moment (field-independent basis, Debye):
    X=              0.0048    Y=              0.1641    Z=              0.0027  Tot=              0.1642
 Quadrupole moment (field-independent basis, Debye-Ang):
   XX=             -8.6258   YY=            -10.7738   ZZ=             -8.6262
   XY=             -0.0040   XZ=              0.0008   YZ=             -0.0023
 Traceless Quadrupole moment (field-independent basis, Debye-Ang):
   XX=              0.7161   YY=             -1.4319   ZZ=              0.7158
   XY=             -0.0040   XZ=              0.0008   YZ=             -0.0023
 Octapole moment (field-independent basis, Debye-Ang**2):
  XXX=              0.4591  YYY=             13.7330  ZZZ=              1.1912  XYY=              0.1702
  XXY=              4.4180  XXZ=             -0.8520  XZZ=              0.1520  YZZ=              4.4196
  YYZ=              0.0947  XYZ=             -0.0014
 Hexadecapole moment (field-independent basis, Debye-Ang**3):
 XXXX=            -17.0154 YYYY=            -93.2920 ZZZZ=            -16.9505 XXXY=             -1.3694
 XXXZ=             -0.0261 YYYX=             -1.4115 YYYZ=             -0.7831 ZZZX=             -0.0257
 ZZZY=             -0.7626 XXYY=            -18.6893 XXZZ=             -5.6610 YYZZ=            -18.6769
 XXYZ=             -0.2500 YYXZ=             -0.0101 ZZXY=             -0.4565
 N-N= 1.124041986370D+01 E-N=-1.153339987698D+02  KE= 4.004644819532D+01
                          Isotropic Fermi Contact Couplings
        Atom                 a.u.       MegaHertz       Gauss      10(-4) cm-1
     1  C(13)              0.01260       7.08352       2.52758       2.36281
     2  H(1)              -0.01383     -30.91634     -11.03172     -10.31258
     3  H(1)              -0.01383     -30.91915     -11.03272     -10.31352
     4  H(1)              -0.01391     -31.09618     -11.09589     -10.37257
     5  H(1)              -0.28715    -641.75432    -228.99389    -214.06620
 --------------------------------------------------------
       Center         ----  Spin Dipole Couplings  ----
                      3XX-RR        3YY-RR        3ZZ-RR
 --------------------------------------------------------
     1   Atom       -0.547724      1.095431     -0.547707
     2   Atom       -0.071447     -0.004328      0.075775
     3   Atom        0.038880     -0.004312     -0.034568
     4   Atom        0.039363     -0.005105     -0.034258
     5   Atom       -0.007157      0.014337     -0.007180
 --------------------------------------------------------
                        XY            XZ            YZ
 --------------------------------------------------------
     1   Atom       -0.003602     -0.000062     -0.002061
     2   Atom       -0.000514     -0.000162     -0.004412
     3   Atom       -0.004079     -0.063794      0.001769
     4   Atom        0.003746      0.063870      0.002175
     5   Atom        0.000879      0.000018      0.000488
 --------------------------------------------------------


 ---------------------------------------------------------------------------------
              Anisotropic Spin Dipole Couplings in Principal Axis System
 ---------------------------------------------------------------------------------

       Atom             a.u.   MegaHertz   Gauss  10(-4) cm-1        Axes

              Baa    -0.5478   -73.508   -26.229   -24.520  0.7624  0.0025  0.6471
     1 C(13)  Bbb    -0.5477   -73.490   -26.223   -24.514 -0.6471 -0.0005  0.7624
              Bcc     1.0954   146.998    52.452    49.033 -0.0022  1.0000 -0.0013
 
              Baa    -0.0715   -38.123   -13.603   -12.716  1.0000  0.0077  0.0013
     2 H(1)   Bbb    -0.0046    -2.436    -0.869    -0.813 -0.0078  0.9985  0.0548
              Bcc     0.0760    40.559    14.473    13.529 -0.0009 -0.0548  0.9985
 
              Baa    -0.0715   -38.126   -13.604   -12.717  0.5007  0.0076  0.8656
     3 H(1)   Bbb    -0.0046    -2.428    -0.866    -0.810  0.0437  0.9985 -0.0341
              Bcc     0.0760    40.554    14.471    13.527  0.8645 -0.0549 -0.4996
 
              Baa    -0.0712   -37.971   -13.549   -12.666 -0.5003 -0.0001  0.8658
     4 H(1)   Bbb    -0.0053    -2.846    -1.016    -0.949 -0.0460  0.9986 -0.0264
              Bcc     0.0765    40.817    14.565    13.615  0.8646  0.0530  0.4996
 
              Baa    -0.0072    -3.838    -1.370    -1.280  0.8636 -0.0466  0.5020
     5 H(1)   Bbb    -0.0072    -3.836    -1.369    -1.280 -0.5025  0.0009  0.8646
              Bcc     0.0144     7.675     2.739     2.560  0.0408  0.9989  0.0227
 

 ---------------------------------------------------------------------------------

 DipInt: DoE/N= T T RetVal/Mat= T F Init=T NMatP=  1 IDeriv=0 Min/MaxMlt=  1  1
 Entering OneElI...
 Multipole integrals L=1 to 1 MinM= 0 MaxM= 0.
 Requested accuracy = 0.1000D-12
 PrsmSu:  NPrtUS=   1 ThrOK=F IAlg=1 NPAlg=1 LenDen=           0.
 Prism:   IPart=     0 DynPar=F LinDyn=F Incr=          12.
 PRISM was handed   419323934 working-precision words and  1275 shell-pairs
 IPart=  0 NShTot=        1275 NBatch=          42 AvBLen=        30.4
 PrSmSu:  NxtVal=             13.
 Entering OneElI...
 Calculate overlap and kinetic energy integrals
    NBasis = 155  MinDer = 1  MaxDer = 1
 Requested accuracy = 0.1000D-12
 PrsmSu:  NPrtUS=  32 ThrOK=T IAlg=1 NPAlg=1 LenDen=           0.
 Prism:   IPart=     0 DynPar=F LinDyn=F Incr=           1.
 PRISM was handed    13082659 working-precision words and  1275 shell-pairs
 PRISM was handed    13082659 working-precision words and  1275 shell-pairs
 PRISM was handed    13082659 working-precision words and  1275 shell-pairs
 PRISM was handed    13082659 working-precision words and  1275 shell-pairs
 PRISM was handed    13082659 working-precision words and  1275 shell-pairs
 PRISM was handed    13082659 working-precision words and  1275 shell-pairs
 PRISM was handed    13082659 working-precision words and  1275 shell-pairs
 PRISM was handed    13082659 working-precision words and  1275 shell-pairs
 PRISM was handed    13082659 working-precision words and  1275 shell-pairs
 PRISM was handed    13082659 working-precision words and  1275 shell-pairs
 PRISM was handed    13082659 working-precision words and  1275 shell-pairs
 PRISM was handed    13082659 working-precision words and  1275 shell-pairs
 PRISM was handed    13082659 working-precision words and  1275 shell-pairs
 PRISM was handed    13082659 working-precision words and  1275 shell-pairs
 PRISM was handed    13082659 working-precision words and  1275 shell-pairs
 PRISM was handed    13082659 working-precision words and  1275 shell-pairs
 PRISM was handed    13082659 working-precision words and  1275 shell-pairs
 PRISM was handed    13082659 working-precision words and  1275 shell-pairs
 PRISM was handed    13082659 working-precision words and  1275 shell-pairs
 PRISM was handed    13082659 working-precision words and  1275 shell-pairs
 PRISM was handed    13082659 working-precision words and  1275 shell-pairs
 PRISM was handed    13082659 working-precision words and  1275 shell-pairs
 PRISM was handed    13082659 working-precision words and  1275 shell-pairs
 PRISM was handed    13082659 working-precision words and  1275 shell-pairs
 PRISM was handed    13082659 working-precision words and  1275 shell-pairs
 PRISM was handed    13082659 working-precision words and  1275 shell-pairs
 PRISM was handed    13082659 working-precision words and  1275 shell-pairs
 PRISM was handed    13082659 working-precision words and  1275 shell-pairs
 PRISM was handed    13082659 working-precision words and  1275 shell-pairs
 PRISM was handed    13082659 working-precision words and  1275 shell-pairs
 PRISM was handed    13082659 working-precision words and  1275 shell-pairs
 PRISM was handed    13082659 working-precision words and  1275 shell-pairs
 IPart=  0 NShTot=          67 NBatch=          38 AvBLen=         1.8
 IPart=  3 NShTot=          50 NBatch=          23 AvBLen=         2.2
 IPart= 28 NShTot=          31 NBatch=          11 AvBLen=         2.8
 IPart=  1 NShTot=          59 NBatch=          31 AvBLen=         1.9
 IPart= 21 NShTot=          35 NBatch=          12 AvBLen=         2.9
 IPart= 25 NShTot=          32 NBatch=          11 AvBLen=         2.9
 IPart= 16 NShTot=          35 NBatch=          12 AvBLen=         2.9
 IPart= 29 NShTot=          31 NBatch=          11 AvBLen=         2.8
 IPart=  6 NShTot=          46 NBatch=          21 AvBLen=         2.2
 IPart= 14 NShTot=          40 NBatch=          17 AvBLen=         2.4
 IPart= 27 NShTot=          32 NBatch=          11 AvBLen=         2.9
 IPart= 23 NShTot=          34 NBatch=          11 AvBLen=         3.1
 IPart=  8 NShTot=          45 NBatch=          20 AvBLen=         2.3
 IPart= 19 NShTot=          35 NBatch=          12 AvBLen=         2.9
 IPart=  2 NShTot=          55 NBatch=          28 AvBLen=         2.0
 IPart=  4 NShTot=          48 NBatch=          21 AvBLen=         2.3
 IPart= 12 NShTot=          40 NBatch=          17 AvBLen=         2.4
 IPart= 10 NShTot=          45 NBatch=          20 AvBLen=         2.3
 IPart= 30 NShTot=          29 NBatch=           9 AvBLen=         3.2
 IPart=  5 NShTot=          46 NBatch=          21 AvBLen=         2.2
 IPart= 24 NShTot=          32 NBatch=          11 AvBLen=         2.9
 IPart= 11 NShTot=          41 NBatch=          17 AvBLen=         2.4
 IPart=  7 NShTot=          46 NBatch=          21 AvBLen=         2.2
 IPart= 15 NShTot=          36 NBatch=          13 AvBLen=         2.8
 IPart= 18 NShTot=          35 NBatch=          12 AvBLen=         2.9
 IPart= 26 NShTot=          32 NBatch=          11 AvBLen=         2.9
 IPart= 20 NShTot=          35 NBatch=          12 AvBLen=         2.9
 IPart=  9 NShTot=          45 NBatch=          20 AvBLen=         2.3
 IPart= 31 NShTot=          29 NBatch=           9 AvBLen=         3.2
 IPart= 13 NShTot=          40 NBatch=          17 AvBLen=         2.4
 IPart= 22 NShTot=          34 NBatch=          11 AvBLen=         3.1
 IPart= 17 NShTot=          35 NBatch=          12 AvBLen=         2.9
 PrSmSu:  NxtVal=             33.
 Entering OneElI...
 Calculate potential energy integrals
    NBasis = 155  MinDer = 1  MaxDer = 1
 Requested accuracy = 0.1000D-12
 PrsmSu:  NPrtUS=  32 ThrOK=T IAlg=1 NPAlg=1 LenDen=           0.
 Prism:   IPart=     0 DynPar=F LinDyn=F Incr=           1.
 PRISM was handed    13084207 working-precision words and  1270 shell-pairs
 PRISM was handed    13084207 working-precision words and  1270 shell-pairs
 PRISM was handed    13084207 working-precision words and  1270 shell-pairs
 PRISM was handed    13084207 working-precision words and  1270 shell-pairs
 PRISM was handed    13084207 working-precision words and  1270 shell-pairs
 PRISM was handed    13084207 working-precision words and  1270 shell-pairs
 PRISM was handed    13084207 working-precision words and  1270 shell-pairs
 PRISM was handed    13084207 working-precision words and  1270 shell-pairs
 PRISM was handed    13084207 working-precision words and  1270 shell-pairs
 PRISM was handed    13084207 working-precision words and  1270 shell-pairs
 PRISM was handed    13084207 working-precision words and  1270 shell-pairs
 PRISM was handed    13084207 working-precision words and  1270 shell-pairs
 PRISM was handed    13084207 working-precision words and  1270 shell-pairs
 PRISM was handed    13084207 working-precision words and  1270 shell-pairs
 PRISM was handed    13084207 working-precision words and  1270 shell-pairs
 PRISM was handed    13084207 working-precision words and  1270 shell-pairs
 PRISM was handed    13084207 working-precision words and  1270 shell-pairs
 PRISM was handed    13084207 working-precision words and  1270 shell-pairs
 PRISM was handed    13084207 working-precision words and  1270 shell-pairs
 PRISM was handed    13084207 working-precision words and  1270 shell-pairs
 PRISM was handed    13084207 working-precision words and  1270 shell-pairs
 PRISM was handed    13084207 working-precision words and  1270 shell-pairs
 PRISM was handed    13084207 working-precision words and  1270 shell-pairs
 PRISM was handed    13084207 working-precision words and  1270 shell-pairs
 PRISM was handed    13084207 working-precision words and  1270 shell-pairs
 PRISM was handed    13084207 working-precision words and  1270 shell-pairs
 PRISM was handed    13084207 working-precision words and  1270 shell-pairs
 PRISM was handed    13084207 working-precision words and  1270 shell-pairs
 PRISM was handed    13084207 working-precision words and  1270 shell-pairs
 PRISM was handed    13084207 working-precision words and  1270 shell-pairs
 PRISM was handed    13084207 working-precision words and  1270 shell-pairs
 PRISM was handed    13084207 working-precision words and  1270 shell-pairs
 IPart= 20 NShTot=         175 NBatch=          35 AvBLen=         5.0
 IPart= 22 NShTot=         165 NBatch=          33 AvBLen=         5.0
 IPart= 13 NShTot=         200 NBatch=          40 AvBLen=         5.0
 IPart= 26 NShTot=         165 NBatch=          33 AvBLen=         5.0
 IPart= 24 NShTot=         165 NBatch=          33 AvBLen=         5.0
 IPart= 31 NShTot=         145 NBatch=          29 AvBLen=         5.0
 IPart= 30 NShTot=         145 NBatch=          29 AvBLen=         5.0
 IPart= 15 NShTot=         175 NBatch=          35 AvBLen=         5.0
 IPart=  9 NShTot=         220 NBatch=          44 AvBLen=         5.0
 IPart= 11 NShTot=         205 NBatch=          41 AvBLen=         5.0
 IPart=  7 NShTot=         230 NBatch=          46 AvBLen=         5.0
 IPart= 17 NShTot=         175 NBatch=          35 AvBLen=         5.0
 IPart= 28 NShTot=         155 NBatch=          31 AvBLen=         5.0
 IPart=  3 NShTot=         250 NBatch=          50 AvBLen=         5.0
 IPart= 23 NShTot=         165 NBatch=          33 AvBLen=         5.0
 IPart=  5 NShTot=         230 NBatch=          46 AvBLen=         5.0
 IPart= 10 NShTot=         205 NBatch=          41 AvBLen=         5.0
 IPart= 25 NShTot=         165 NBatch=          33 AvBLen=         5.0
 IPart= 18 NShTot=         175 NBatch=          35 AvBLen=         5.0
 IPart= 27 NShTot=         160 NBatch=          32 AvBLen=         5.0
 IPart= 19 NShTot=         175 NBatch=          35 AvBLen=         5.0
 IPart=  1 NShTot=         295 NBatch=          59 AvBLen=         5.0
 IPart=  8 NShTot=         220 NBatch=          44 AvBLen=         5.0
 IPart= 29 NShTot=         155 NBatch=          31 AvBLen=         5.0
 IPart= 21 NShTot=         175 NBatch=          35 AvBLen=         5.0
 IPart=  2 NShTot=         275 NBatch=          55 AvBLen=         5.0
 IPart=  0 NShTot=         345 NBatch=          69 AvBLen=         5.0
 IPart= 12 NShTot=         205 NBatch=          41 AvBLen=         5.0
 IPart=  4 NShTot=         245 NBatch=          49 AvBLen=         5.0
 IPart= 14 NShTot=         185 NBatch=          37 AvBLen=         5.0
 IPart=  6 NShTot=         230 NBatch=          46 AvBLen=         5.0
 IPart= 16 NShTot=         175 NBatch=          35 AvBLen=         5.0
 PrSmSu:  NxtVal=             33.
 l701 out
 I=    0 X=   1.882987907253D-03 Y=   6.456345105764D-02 Z=   1.055456505359D-03
 I=    1 X=   4.630584460426D-03 Y=   1.725337603983D-01 Z=   3.025141233669D-03
 I=    2 X=   2.217101127444D-03 Y=   4.772608830499D-02 Z=   2.311495881205D+00
 I=    3 X=   2.003522788825D+00 Y=   4.757131990491D-02 Z=  -1.152986101531D+00
 I=    4 X=  -1.999225381586D+00 Y=   4.486100257945D-02 Z=  -1.155362338058D+00
 I=    5 X=  -1.114509282646D-02 Y=  -3.126921711877D-01 Z=  -6.172582849807D-03
 ICntrl=      2127.
 Calling FoFJK, ICntrl=      2127 FMM=F ISym2X=0 I1Cent= 0 IOpClX= 1 NMat=1 NMatS=1 NMatT=0.
 FoFJK:  IHMeth= 1 ICntrl=    2127 DoSepK=T KAlg= 0 I1Cent=   0 FoldK=F
 IRaf=         1 NMat=   1 IRICut=       1 DoRegI=T DoRafI=F ISym2E= 0.
 FoFCou: FMM=F IPFlag=           0 FMFlag=      100000 FMFlg1=         800
         NFxFlg=           0 DoJE=F BraDBF=F KetDBF=F FulRan=T
         wScrn=  0.000000 ICntrl=    2527 IOpCl=  0 I1Cent=           0 NGrid=           0
         NMat0=    1 NMatS0=      1 NMatT0=    0 NMatD0=    1 NMtDS0=    0 NMtDT0=    0
 Symmetry not used in FoFCou.
 FoFCou:  KetSym=F NOpSet=  1 NOpAb=1 NOp=  1.
 FoFCou:  CnvScl= 1.00D+00 Thresh= 1.00D-10 IAcrcy=      10.
 PrismS was handed   419298932 working-precision words and  1275 shell-pairs
 FoFCou: LinMIO=F DoNuc=F BraDBF=F KetDBF=F HaveP=T PDBF=F HaveZ=T HaveW=F
         NIJTC =      10 NIJTAt=       0 NIJTCD=       0 NIJTT =      10
         IJTBeg=       1 IJTEnd=      10 KLTBeg=       1 KLTEnd=      10
         IPTBeg=       1 IPTEnd=      10 IPTBCv=       1 IPTECv=      10
         IZTBeg=       1 IZTEnd=      10 IZTBCv=       1 IZTECv=      10
         IWTBeg=      11 IWTEnd=      10 IWTBCv=      11 IWTECv=      10
         INTBeg=       1 INTEnd=       0 IFTBCv=       1 IFTECv=      10
 NCel replicated for PrismC:     1
 CoulSu:  IncDef=  1024 NBBP=         813450 NTPThr=   100 NPartT=   32 Incr=         254 LDynOK=F.
 CoulSu:  NPrtUS=  32 ThrOK=T IAlg=1 NPAlg=1 LenDen=           0 LWGrdD=           0 DoCopy=F.
 Enter PrismC: JobTyp=21 DoJE=F Cont=F.
 Enter PrismC: JobTyp=21 DoJE=F Cont=F.
 Enter PrismC: JobTyp=21 DoJE=F Cont=F.
 Enter PrismC: JobTyp=21 DoJE=F Cont=F.
 Enter PrismC: JobTyp=21 DoJE=F Cont=F.
 Enter PrismC: JobTyp=21 DoJE=F Cont=F.
 Enter PrismC: JobTyp=21 DoJE=F Cont=F.
 PrismC:  IPart=     0 DynPar=T LinDyn=F Incr=         254 UseFst=F UseS4=T IGathr=2.
 PrismC was handed    13083183 working-precision words and  1275 shell-pairs
 Enter PrismC: JobTyp=21 DoJE=F Cont=F.
 Enter PrismC: JobTyp=21 DoJE=F Cont=F.
 Enter PrismC: JobTyp=21 DoJE=F Cont=F.
 Enter PrismC: JobTyp=21 DoJE=F Cont=F.
 Enter PrismC: JobTyp=21 DoJE=F Cont=F.
 Enter PrismC: JobTyp=21 DoJE=F Cont=F.
 Enter PrismC: JobTyp=21 DoJE=F Cont=F.
 Enter PrismC: JobTyp=21 DoJE=F Cont=F.
 Enter PrismC: JobTyp=21 DoJE=F Cont=F.
 Enter PrismC: JobTyp=21 DoJE=F Cont=F.
 Enter PrismC: JobTyp=21 DoJE=F Cont=F.
 Enter PrismC: JobTyp=21 DoJE=F Cont=F.
 Enter PrismC: JobTyp=21 DoJE=F Cont=F.
 Enter PrismC: JobTyp=21 DoJE=F Cont=F.
 Enter PrismC: JobTyp=21 DoJE=F Cont=F.
 Enter PrismC: JobTyp=21 DoJE=F Cont=F.
 PrismC was handed    13083183 working-precision words and  1275 shell-pairs
 Enter PrismC: JobTyp=21 DoJE=F Cont=F.
 PrismC was handed    13083183 working-precision words and  1275 shell-pairs
 Enter PrismC: JobTyp=21 DoJE=F Cont=F.
 Enter PrismC: JobTyp=21 DoJE=F Cont=F.
 PrismC was handed    13083183 working-precision words and  1275 shell-pairs
 Enter PrismC: JobTyp=21 DoJE=F Cont=F.
 PrismC was handed    13083183 working-precision words and  1275 shell-pairs
 Enter PrismC: JobTyp=21 DoJE=F Cont=F.
 PrismC was handed    13083183 working-precision words and  1275 shell-pairs
 Enter PrismC: JobTyp=21 DoJE=F Cont=F.
 PrismC was handed    13083183 working-precision words and  1275 shell-pairs
 Enter PrismC: JobTyp=21 DoJE=F Cont=F.
 PrismC was handed    13083183 working-precision words and  1275 shell-pairs
 Enter PrismC: JobTyp=21 DoJE=F Cont=F.
 PrismC was handed    13083183 working-precision words and  1275 shell-pairs
 PrismC was handed    13083183 working-precision words and  1275 shell-pairs
 PrismC was handed    13083183 working-precision words and  1275 shell-pairs
 PrismC was handed    13083183 working-precision words and  1275 shell-pairs
 PrismC was handed    13083183 working-precision words and  1275 shell-pairs
 PrismC was handed    13083183 working-precision words and  1275 shell-pairs
 Enter PrismC: JobTyp=21 DoJE=F Cont=F.
 PrismC was handed    13083183 working-precision words and  1275 shell-pairs
 PrismC was handed    13083183 working-precision words and  1275 shell-pairs
 PrismC was handed    13083183 working-precision words and  1275 shell-pairs
 PrismC was handed    13083183 working-precision words and  1275 shell-pairs
 PrismC was handed    13083183 working-precision words and  1275 shell-pairs
 PrismC was handed    13083183 working-precision words and  1275 shell-pairs
 PrismC was handed    13083183 working-precision words and  1275 shell-pairs
 PrismC was handed    13083183 working-precision words and  1275 shell-pairs
 PrismC was handed    13083183 working-precision words and  1275 shell-pairs
 PrismC was handed    13083183 working-precision words and  1275 shell-pairs
 PrismC was handed    13083183 working-precision words and  1275 shell-pairs
 PrismC was handed    13083183 working-precision words and  1275 shell-pairs
 PrismC was handed    13083183 working-precision words and  1275 shell-pairs
 PrismC was handed    13083183 working-precision words and  1275 shell-pairs
 PrismC was handed    13083183 working-precision words and  1275 shell-pairs
 PrismC was handed    13083183 working-precision words and  1275 shell-pairs
 PrismC was handed    13083183 working-precision words and  1275 shell-pairs
 PrismC was handed    13083183 working-precision words and  1275 shell-pairs
 IPart= 22 NShTot=       24440 NShNF=       24440 NShFF=           0 NBatch=         252 AvBLen=        97.0
 IPart=  1 NShTot=       26515 NShNF=       26515 NShFF=           0 NBatch=         249 AvBLen=       106.5
 IPart=  4 NShTot=       20220 NShNF=       20220 NShFF=           0 NBatch=         229 AvBLen=        88.3
 IPart=  7 NShTot=       24655 NShNF=       24655 NShFF=           0 NBatch=         257 AvBLen=        95.9
 IPart= 14 NShTot=       21017 NShNF=       21017 NShFF=           0 NBatch=         182 AvBLen=       115.5
 IPart= 30 NShTot=       24211 NShNF=       24211 NShFF=           0 NBatch=         252 AvBLen=        96.1
 IPart= 27 NShTot=       24950 NShNF=       24950 NShFF=           0 NBatch=         236 AvBLen=       105.7
 IPart=  9 NShTot=       26704 NShNF=       26704 NShFF=           0 NBatch=         270 AvBLen=        98.9
 IPart=  3 NShTot=       24598 NShNF=       24598 NShFF=           0 NBatch=         221 AvBLen=       111.3
 IPart=  8 NShTot=       24333 NShNF=       24333 NShFF=           0 NBatch=         248 AvBLen=        98.1
 IPart= 24 NShTot=       26203 NShNF=       26203 NShFF=           0 NBatch=         252 AvBLen=       104.0
 IPart= 12 NShTot=       23453 NShNF=       23453 NShFF=           0 NBatch=         238 AvBLen=        98.5
 IPart= 19 NShTot=       26146 NShNF=       26146 NShFF=           0 NBatch=         256 AvBLen=       102.1
 IPart=  5 NShTot=       21595 NShNF=       21595 NShFF=           0 NBatch=         253 AvBLen=        85.4
 IPart= 16 NShTot=       25080 NShNF=       25080 NShFF=           0 NBatch=         244 AvBLen=       102.8
 IPart= 20 NShTot=       21264 NShNF=       21264 NShFF=           0 NBatch=         265 AvBLen=        80.2
 IPart= 21 NShTot=       25474 NShNF=       25474 NShFF=           0 NBatch=         244 AvBLen=       104.4
 IPart= 25 NShTot=       22194 NShNF=       22194 NShFF=           0 NBatch=         236 AvBLen=        94.0
 IPart=  0 NShTot=       22454 NShNF=       22454 NShFF=           0 NBatch=         184 AvBLen=       122.0
 IPart= 23 NShTot=       22264 NShNF=       22264 NShFF=           0 NBatch=         226 AvBLen=        98.5
 IPart= 15 NShTot=       25956 NShNF=       25956 NShFF=           0 NBatch=         243 AvBLen=       106.8
 IPart=  2 NShTot=       21840 NShNF=       21840 NShFF=           0 NBatch=         215 AvBLen=       101.6
 IPart= 29 NShTot=       26692 NShNF=       26692 NShFF=           0 NBatch=         245 AvBLen=       108.9
 IPart= 31 NShTot=       22493 NShNF=       22493 NShFF=           0 NBatch=         251 AvBLen=        89.6
 IPart= 18 NShTot=       20818 NShNF=       20818 NShFF=           0 NBatch=         246 AvBLen=        84.6
 IPart=  6 NShTot=       21942 NShNF=       21942 NShFF=           0 NBatch=         230 AvBLen=        95.4
 IPart= 11 NShTot=       25716 NShNF=       25716 NShFF=           0 NBatch=         264 AvBLen=        97.4
 IPart= 10 NShTot=       24858 NShNF=       24858 NShFF=           0 NBatch=         258 AvBLen=        96.3
 IPart= 17 NShTot=       26634 NShNF=       26634 NShFF=           0 NBatch=         257 AvBLen=       103.6
 IPart= 28 NShTot=       22160 NShNF=       22160 NShFF=           0 NBatch=         261 AvBLen=        84.9
 IPart= 13 NShTot=       26358 NShNF=       26358 NShFF=           0 NBatch=         193 AvBLen=       136.6
 IPart= 26 NShTot=       24359 NShNF=       24359 NShFF=           0 NBatch=         272 AvBLen=        89.6
 CoulSu:  NxtVal=         898907.
 FoFCou: FMM=F IPFlag=           0 FMFlag=      100000 FMFlg1=         800
         NFxFlg=           0 DoJE=F BraDBF=F KetDBF=F FulRan=T
         wScrn=  0.000000 ICntrl=    2127 IOpCl=  1 I1Cent=           0 NGrid=           0
         NMat0=    1 NMatS0=      0 NMatT0=    1 NMatD0=    1 NMtDS0=    0 NMtDT0=    0
         CW=    0.222036    0.777964
         WU=    0.000000   12.500000
 Symmetry not used in FoFCou.
 FoFCou:  KetSym=F NOpSet=  1 NOpAb=1 NOp=  1.
 FoFCou:  CnvScl= 1.00D+00 Thresh= 1.00D-10 IAcrcy=      10.
 PrismS was handed   419297692 working-precision words and  1275 shell-pairs
 FoFCou: LinMIO=F DoNuc=F BraDBF=F KetDBF=F HaveP=T PDBF=F HaveZ=T HaveW=F
         NIJTC =      10 NIJTAt=       0 NIJTCD=       0 NIJTT =      10
         IJTBeg=       1 IJTEnd=      10 KLTBeg=       1 KLTEnd=      10
         IPTBeg=       1 IPTEnd=      10 IPTBCv=       1 IPTECv=      10
         IZTBeg=       1 IZTEnd=      10 IZTBCv=       1 IZTECv=      10
         IWTBeg=      11 IWTEnd=      10 IWTBCv=      11 IWTECv=      10
         INTBeg=       1 INTEnd=       0 IFTBCv=       1 IFTECv=      10
 NCel replicated for PrismC:     1
 CoulSu:  IncDef=  1024 NBBP=         813450 NTPThr=   100 NPartT=   32 Incr=         254 LDynOK=F.
 CoulSu:  NPrtUS=  32 ThrOK=T IAlg=1 NPAlg=1 LenDen=           0 LWGrdD=           0 DoCopy=F.
 Enter PrismC: JobTyp=21 DoJE=F Cont=F.
 Linear combination for Coulomb/exchange, wScrn=  0.000000
 Enter PrismC: JobTyp=21 DoJE=F Cont=F.
 Enter PrismC: JobTyp=21 DoJE=F Cont=F.
 Enter PrismC: JobTyp=21 DoJE=F Cont=F.
 Enter PrismC: JobTyp=21 DoJE=F Cont=F.
 Linear combination for Coulomb/exchange, wScrn=  0.000000
 CW=    0.222036    0.777964
 WU=    0.000000   12.500000
 Enter PrismC: JobTyp=21 DoJE=F Cont=F.
 Linear combination for Coulomb/exchange, wScrn=  0.000000
 CW=    0.222036    0.777964
 WU=    0.000000   12.500000
 Enter PrismC: JobTyp=21 DoJE=F Cont=F.
 Linear combination for Coulomb/exchange, wScrn=  0.000000
 CW=    0.222036    0.777964
 WU=    0.000000   12.500000
 Linear combination for Coulomb/exchange, wScrn=  0.000000
 CW=    0.222036    0.777964
 WU=    0.000000   12.500000
 Enter PrismC: JobTyp=21 DoJE=F Cont=F.
 Linear combination for Coulomb/exchange, wScrn=  0.000000
 CW=    0.222036    0.777964
 WU=    0.000000   12.500000
 Enter PrismC: JobTyp=21 DoJE=F Cont=F.
 Linear combination for Coulomb/exchange, wScrn=  0.000000
 CW=    0.222036    0.777964
 WU=    0.000000   12.500000
 Enter PrismC: JobTyp=21 DoJE=F Cont=F.
 Linear combination for Coulomb/exchange, wScrn=  0.000000
 CW=    0.222036    0.777964
 WU=    0.000000   12.500000
 Enter PrismC: JobTyp=21 DoJE=F Cont=F.
 Linear combination for Coulomb/exchange, wScrn=  0.000000
 CW=    0.222036    0.777964
 WU=    0.000000   12.500000
 Enter PrismC: JobTyp=21 DoJE=F Cont=F.
 Linear combination for Coulomb/exchange, wScrn=  0.000000
 CW=    0.222036    0.777964
 WU=    0.000000   12.500000
 Enter PrismC: JobTyp=21 DoJE=F Cont=F.
 Linear combination for Coulomb/exchange, wScrn=  0.000000
 CW=    0.222036    0.777964
 WU=    0.000000   12.500000
 Enter PrismC: JobTyp=21 DoJE=F Cont=F.
 Linear combination for Coulomb/exchange, wScrn=  0.000000
 CW=    0.222036    0.777964
 WU=    0.000000   12.500000
 Enter PrismC: JobTyp=21 DoJE=F Cont=F.
 Linear combination for Coulomb/exchange, wScrn=  0.000000
 CW=    0.222036    0.777964
 WU=    0.000000   12.500000
 PrismC was handed    13083145 working-precision words and  1275 shell-pairs
 Enter PrismC: JobTyp=21 DoJE=F Cont=F.
 Linear combination for Coulomb/exchange, wScrn=  0.000000
 CW=    0.222036    0.777964
 WU=    0.000000   12.500000
 Enter PrismC: JobTyp=21 DoJE=F Cont=F.
 Linear combination for Coulomb/exchange, wScrn=  0.000000
 CW=    0.222036    0.777964
 WU=    0.000000   12.500000
 Enter PrismC: JobTyp=21 DoJE=F Cont=F.
 Linear combination for Coulomb/exchange, wScrn=  0.000000
 CW=    0.222036    0.777964
 WU=    0.000000   12.500000
 PrismC was handed    13083145 working-precision words and  1275 shell-pairs
 CW=    0.222036    0.777964
 WU=    0.000000   12.500000
 Linear combination for Coulomb/exchange, wScrn=  0.000000
 CW=    0.222036    0.777964
 WU=    0.000000   12.500000
 Enter PrismC: JobTyp=21 DoJE=F Cont=F.
 Linear combination for Coulomb/exchange, wScrn=  0.000000
 CW=    0.222036    0.777964
 WU=    0.000000   12.500000
 Enter PrismC: JobTyp=21 DoJE=F Cont=F.
 Linear combination for Coulomb/exchange, wScrn=  0.000000
 CW=    0.222036    0.777964
 WU=    0.000000   12.500000
 Enter PrismC: JobTyp=21 DoJE=F Cont=F.
 Linear combination for Coulomb/exchange, wScrn=  0.000000
 CW=    0.222036    0.777964
 WU=    0.000000   12.500000
 Enter PrismC: JobTyp=21 DoJE=F Cont=F.
 Linear combination for Coulomb/exchange, wScrn=  0.000000
 CW=    0.222036    0.777964
 WU=    0.000000   12.500000
 PrismC was handed    13083145 working-precision words and  1275 shell-pairs
 PrismC was handed    13083145 working-precision words and  1275 shell-pairs
 Enter PrismC: JobTyp=21 DoJE=F Cont=F.
 Linear combination for Coulomb/exchange, wScrn=  0.000000
 CW=    0.222036    0.777964
 WU=    0.000000   12.500000
 Enter PrismC: JobTyp=21 DoJE=F Cont=F.
 Linear combination for Coulomb/exchange, wScrn=  0.000000
 CW=    0.222036    0.777964
 WU=    0.000000   12.500000
 PrismC:  IPart=     0 DynPar=T LinDyn=F Incr=         254 UseFst=F UseS4=T IGathr=2.
 PrismC was handed    13083145 working-precision words and  1275 shell-pairs
 Enter PrismC: JobTyp=21 DoJE=F Cont=F.
 Linear combination for Coulomb/exchange, wScrn=  0.000000
 CW=    0.222036    0.777964
 WU=    0.000000   12.500000
 Enter PrismC: JobTyp=21 DoJE=F Cont=F.
 Linear combination for Coulomb/exchange, wScrn=  0.000000
 CW=    0.222036    0.777964
 WU=    0.000000   12.500000
 PrismC was handed    13083145 working-precision words and  1275 shell-pairs
 Enter PrismC: JobTyp=21 DoJE=F Cont=F.
 Linear combination for Coulomb/exchange, wScrn=  0.000000
 CW=    0.222036    0.777964
 WU=    0.000000   12.500000
 Enter PrismC: JobTyp=21 DoJE=F Cont=F.
 Linear combination for Coulomb/exchange, wScrn=  0.000000
 CW=    0.222036    0.777964
 WU=    0.000000   12.500000
 Enter PrismC: JobTyp=21 DoJE=F Cont=F.
 Linear combination for Coulomb/exchange, wScrn=  0.000000
 CW=    0.222036    0.777964
 WU=    0.000000   12.500000
 PrismC was handed    13083145 working-precision words and  1275 shell-pairs
 PrismC was handed    13083145 working-precision words and  1275 shell-pairs
 Enter PrismC: JobTyp=21 DoJE=F Cont=F.
 Linear combination for Coulomb/exchange, wScrn=  0.000000
 CW=    0.222036    0.777964
 WU=    0.000000   12.500000
 PrismC was handed    13083145 working-precision words and  1275 shell-pairs
 PrismC was handed    13083145 working-precision words and  1275 shell-pairs
 PrismC was handed    13083145 working-precision words and  1275 shell-pairs
 PrismC was handed    13083145 working-precision words and  1275 shell-pairs
 PrismC was handed    13083145 working-precision words and  1275 shell-pairs
 PrismC was handed    13083145 working-precision words and  1275 shell-pairs
 PrismC was handed    13083145 working-precision words and  1275 shell-pairs
 PrismC was handed    13083145 working-precision words and  1275 shell-pairs
 PrismC was handed    13083145 working-precision words and  1275 shell-pairs
 PrismC was handed    13083145 working-precision words and  1275 shell-pairs
 PrismC was handed    13083145 working-precision words and  1275 shell-pairs
 PrismC was handed    13083145 working-precision words and  1275 shell-pairs
 PrismC was handed    13083145 working-precision words and  1275 shell-pairs
 PrismC was handed    13083145 working-precision words and  1275 shell-pairs
 Enter PrismC: JobTyp=21 DoJE=F Cont=F.
 Linear combination for Coulomb/exchange, wScrn=  0.000000
 CW=    0.222036    0.777964
 WU=    0.000000   12.500000
 PrismC was handed    13083145 working-precision words and  1275 shell-pairs
 PrismC was handed    13083145 working-precision words and  1275 shell-pairs
 PrismC was handed    13083145 working-precision words and  1275 shell-pairs
 Linear combination for Coulomb/exchange, wScrn=  0.000000
 CW=    0.222036    0.777964
 WU=    0.000000   12.500000
 PrismC was handed    13083145 working-precision words and  1275 shell-pairs
 PrismC was handed    13083145 working-precision words and  1275 shell-pairs
 Enter PrismC: JobTyp=21 DoJE=F Cont=F.
 Linear combination for Coulomb/exchange, wScrn=  0.000000
 CW=    0.222036    0.777964
 WU=    0.000000   12.500000
 PrismC was handed    13083145 working-precision words and  1275 shell-pairs
 PrismC was handed    13083145 working-precision words and  1275 shell-pairs
 PrismC was handed    13083145 working-precision words and  1275 shell-pairs
 PrismC was handed    13083145 working-precision words and  1275 shell-pairs
 PrismC was handed    13083145 working-precision words and  1275 shell-pairs
 IPart= 31 NShTot=       23546 NShNF=       23546 NShFF=           0 NBatch=         318 AvBLen=        74.0
 IPart=  2 NShTot=       24086 NShNF=       24086 NShFF=           0 NBatch=         293 AvBLen=        82.2
 IPart= 22 NShTot=       26283 NShNF=       26283 NShFF=           0 NBatch=         306 AvBLen=        85.9
 IPart=  0 NShTot=       22774 NShNF=       22774 NShFF=           0 NBatch=         247 AvBLen=        92.2
 IPart=  5 NShTot=       25948 NShNF=       25948 NShFF=           0 NBatch=         281 AvBLen=        92.3
 IPart= 25 NShTot=       26257 NShNF=       26257 NShFF=           0 NBatch=         260 AvBLen=       101.0
 IPart= 26 NShTot=       24104 NShNF=       24104 NShFF=           0 NBatch=         301 AvBLen=        80.1
 IPart=  4 NShTot=       24086 NShNF=       24086 NShFF=           0 NBatch=         310 AvBLen=        77.7
 IPart= 17 NShTot=       25806 NShNF=       25806 NShFF=           0 NBatch=         260 AvBLen=        99.3
 IPart= 23 NShTot=       22301 NShNF=       22301 NShFF=           0 NBatch=         255 AvBLen=        87.5
 IPart=  8 NShTot=       27058 NShNF=       27058 NShFF=           0 NBatch=         309 AvBLen=        87.6
 IPart= 28 NShTot=       22935 NShNF=       22935 NShFF=           0 NBatch=         257 AvBLen=        89.2
 IPart= 15 NShTot=       22483 NShNF=       22483 NShFF=           0 NBatch=         209 AvBLen=       107.6
 IPart= 10 NShTot=       21291 NShNF=       21291 NShFF=           0 NBatch=         299 AvBLen=        71.2
 IPart= 21 NShTot=       23062 NShNF=       23062 NShFF=           0 NBatch=         279 AvBLen=        82.7
 IPart= 20 NShTot=       24432 NShNF=       24432 NShFF=           0 NBatch=         309 AvBLen=        79.1
 IPart= 16 NShTot=       25818 NShNF=       25818 NShFF=           0 NBatch=         270 AvBLen=        95.6
 IPart=  3 NShTot=       28767 NShNF=       28767 NShFF=           0 NBatch=         320 AvBLen=        89.9
 IPart=  7 NShTot=       24010 NShNF=       24010 NShFF=           0 NBatch=         313 AvBLen=        76.7
 IPart= 12 NShTot=       25416 NShNF=       25416 NShFF=           0 NBatch=         302 AvBLen=        84.2
 IPart=  9 NShTot=       24700 NShNF=       24700 NShFF=           0 NBatch=         257 AvBLen=        96.1
 IPart= 30 NShTot=       21699 NShNF=       21699 NShFF=           0 NBatch=         306 AvBLen=        70.9
 IPart=  6 NShTot=       23102 NShNF=       23102 NShFF=           0 NBatch=         234 AvBLen=        98.7
 IPart= 13 NShTot=       21434 NShNF=       21434 NShFF=           0 NBatch=         322 AvBLen=        66.6
 IPart=  1 NShTot=       22588 NShNF=       22588 NShFF=           0 NBatch=         316 AvBLen=        71.5
 IPart= 19 NShTot=       24529 NShNF=       24529 NShFF=           0 NBatch=         324 AvBLen=        75.7
 IPart= 11 NShTot=       25928 NShNF=       25928 NShFF=           0 NBatch=         287 AvBLen=        90.3
 IPart= 18 NShTot=       21080 NShNF=       21080 NShFF=           0 NBatch=         267 AvBLen=        79.0
 IPart= 29 NShTot=       21559 NShNF=       21559 NShFF=           0 NBatch=         260 AvBLen=        82.9
 IPart= 24 NShTot=       20704 NShNF=       20704 NShFF=           0 NBatch=         309 AvBLen=        67.0
 IPart= 27 NShTot=       25443 NShNF=       25443 NShFF=           0 NBatch=         314 AvBLen=        81.0
 IPart= 14 NShTot=       24895 NShNF=       24895 NShFF=           0 NBatch=         307 AvBLen=        81.1
 CoulSu:  NxtVal=         898907.
 ReadGW:  IGet=0 IStart=           1 Next=           1 LGW=           0.
 Remaining memory in FofDFT      399.95 Mw
 CkSvGd:  ISavGI=        -1 IRadAn=       5 IRASav=       5 ISavGd=        -1.
 CalDSu:  NPrtUS=  32 ThrOK=T IAlg=1 NPAlg=2 DoDPD=T LenP=       12090 LenD1P=             0.
 IPart=  0 IRanGd=          0 ScrnBf=T ScrnGd=T RCrit=4.00D+00 DoMicB=T.
 IPart=  8         3226 of         3568 points in       4 batches and       10 microbatches, Max-NSigAt=       5 Max-NSgAt2=       5
 IPart=  5         2820 of         2820 points in       2 batches and        6 microbatches, Max-NSigAt=       5 Max-NSgAt2=       5
 IPart= 10         3465 of         3968 points in       5 batches and       32 microbatches, Max-NSigAt=       5 Max-NSgAt2=       5
 IPart= 14         2795 of         2858 points in       3 batches and        7 microbatches, Max-NSigAt=       5 Max-NSgAt2=       5
 IPart=  6         3158 of         3462 points in       4 batches and        8 microbatches, Max-NSigAt=       5 Max-NSgAt2=       5
 IPart= 30         2750 of         2964 points in       3 batches and       27 microbatches, Max-NSigAt=       5 Max-NSgAt2=       5
 IPart= 27         3212 of         3568 points in       4 batches and       22 microbatches, Max-NSigAt=       5 Max-NSgAt2=       5
 IPart= 25         2700 of         2732 points in       2 batches and        9 microbatches, Max-NSigAt=       5 Max-NSgAt2=       5
 IPart= 12         2814 of         2992 points in       3 batches and       18 microbatches, Max-NSigAt=       5 Max-NSgAt2=       5
 IPart=  4         2682 of         2964 points in       3 batches and       28 microbatches, Max-NSigAt=       5 Max-NSgAt2=       5
 IPart= 21         3149 of         3246 points in       3 batches and       21 microbatches, Max-NSigAt=       5 Max-NSgAt2=       5
 IPart= 13         2718 of         2964 points in       3 batches and       25 microbatches, Max-NSigAt=       5 Max-NSgAt2=       5
 IPart= 16         3136 of         3336 points in       3 batches and        9 microbatches, Max-NSigAt=       5 Max-NSgAt2=       5
 IPart=  1         3579 of         4200 points in       6 batches and       85 microbatches, Max-NSigAt=       5 Max-NSgAt2=       5
 IPart=  9         3119 of         3322 points in       3 batches and       41 microbatches, Max-NSigAt=       5 Max-NSgAt2=       5
 IPart= 18         3253 of         3562 points in       5 batches and       33 microbatches, Max-NSigAt=       5 Max-NSgAt2=       5
 IPart=  3         3434 of         3596 points in       4 batches and       14 microbatches, Max-NSigAt=       5 Max-NSgAt2=       5
 IPart= 20         3796 of         4200 points in       5 batches and       23 microbatches, Max-NSigAt=       5 Max-NSgAt2=       5
 IPart= 19         3827 of         4200 points in       5 batches and       27 microbatches, Max-NSigAt=       5 Max-NSgAt2=       5
 IPart= 29         3850 of         3850 points in       3 batches and        9 microbatches, Max-NSigAt=       5 Max-NSgAt2=       5
 IPart= 31         3387 of         3568 points in       4 batches and       27 microbatches, Max-NSigAt=       5 Max-NSgAt2=       5
 IPart= 24         3453 of         3620 points in       4 batches and       25 microbatches, Max-NSigAt=       5 Max-NSgAt2=       5
 IPart= 22         4248 of         4670 points in       5 batches and       13 microbatches, Max-NSigAt=       5 Max-NSgAt2=       5
 IPart=  0         3458 of         3564 points in       3 batches and       12 microbatches, Max-NSigAt=       5 Max-NSgAt2=       5
 IPart= 11         3860 of         4144 points in       4 batches and       11 microbatches, Max-NSigAt=       5 Max-NSgAt2=       5
 IPart= 23         4335 of         4516 points in       4 batches and       11 microbatches, Max-NSigAt=       5 Max-NSgAt2=       5
 IPart=  2         3960 of         4368 points in       5 batches and       35 microbatches, Max-NSigAt=       5 Max-NSgAt2=       5
 IPart= 17         3428 of         3540 points in       3 batches and       10 microbatches, Max-NSigAt=       5 Max-NSgAt2=       5
 IPart=  7         3508 of         3540 points in       3 batches and       11 microbatches, Max-NSigAt=       5 Max-NSgAt2=       5
 IPart= 15         3482 of         3540 points in       3 batches and       11 microbatches, Max-NSigAt=       5 Max-NSgAt2=       5
 IPart= 28         4274 of         4804 points in       6 batches and       45 microbatches, Max-NSigAt=       5 Max-NSgAt2=       5
 IPart= 26         3452 of         3524 points in       3 batches and       13 microbatches, Max-NSigAt=       5 Max-NSgAt2=       5
 Forces at end of L703
 I=    0 X=   1.882987907253D-03 Y=   6.456345105764D-02 Z=   1.055456505359D-03
 I=    1 X=   1.058645672691D-04 Y=   4.606260897136D-03 Z=   5.074456038751D-05
 I=    2 X=   5.063806205484D-05 Y=  -3.835728208136D-04 Z=  -5.794397542269D-05
 I=    3 X=  -3.271841430053D-05 Y=  -3.806747711918D-04 Z=   7.502900811351D-05
 I=    4 X=   3.644767313604D-05 Y=  -5.281005306378D-04 Z=   1.899906561009D-05
 I=    5 X=  -1.602318881584D-04 Y=  -3.313912774491D-03 Z=  -8.682865869000D-05
 FrcOut:
 IF    =    36 IFX   =    51 IFXYZ =    66
 IFFX  =    81 IFFFX =   201 IFLen =    15
 IFFLen=   120 IFFFLn=     0 IEDerv=   201
 LEDerv=   773 IFroze=  1163 ICStrt= 39591
 FCEst1:  Generated internal coordinate force constants:
                1             2             3             4             5 
      1  0.723988D+00
      2  0.311646D-02  0.224639D+00
      3 -0.639198D-03  0.175336D-02  0.724759D+00
      4 -0.115816D+00 -0.148975D-02  0.469510D-03  0.772112D-01
      5 -0.149114D-02 -0.712889D-01  0.140031D-01  0.145547D-02  0.493378D-01
      6  0.000000D+00  0.000000D+00 -0.362127D+00  0.000000D+00  0.000000D+00
      7 -0.300449D+00 -0.730955D-03  0.106484D+00  0.192744D-01 -0.141975D-04
      8  0.113988D-01 -0.713077D-01 -0.826430D-02 -0.284190D-04  0.108420D-01
      9  0.106949D+00 -0.126748D-02 -0.177483D+00  0.334218D-01 -0.246185D-04
     10 -0.300435D+00 -0.747566D-03 -0.106694D+00  0.193035D-01  0.413315D-04
     11 -0.128682D-01 -0.705144D-01 -0.740466D-02  0.542289D-04  0.108410D-01
     12 -0.106688D+00 -0.400939D-03 -0.177440D+00 -0.334068D-01 -0.134529D-03
     13 -0.728809D-02 -0.148192D-03  0.378928D-03  0.265158D-04  0.853936D-05
     14 -0.155918D-03 -0.115278D-01 -0.874587D-04  0.847114D-05  0.268244D-03
     15  0.378866D-03 -0.849425D-04 -0.770943D-02 -0.484526D-03 -0.138439D-01
                6             7             8             9            10 
      6  0.362127D+00
      7  0.000000D+00  0.291018D+00
      8  0.000000D+00  0.713627D-03  0.493397D-01
      9  0.000000D+00 -0.123304D+00  0.123743D-02  0.148318D+00
     10  0.000000D+00 -0.964368D-02 -0.959243D-04 -0.167221D-01  0.290795D+00
     11  0.000000D+00  0.270895D-04  0.108410D-01  0.469732D-04  0.800971D-03
     12  0.000000D+00  0.166892D-01  0.103005D-03  0.289390D-01  0.123442D+00
     13  0.000000D+00 -0.198855D-03 -0.119881D-01 -0.344814D-03 -0.192350D-04
     14  0.000000D+00  0.443634D-05  0.285100D-03  0.769261D-05  0.118772D-05
     15  0.000000D+00  0.129946D-03  0.692386D-02  0.225326D-03 -0.265379D-04
               11            12            13            14            15 
     11  0.493861D-01
     12  0.431301D-03  0.148495D+00
     13  0.119859D-01 -0.363668D-04  0.747967D-02
     14 -0.553690D-03  0.116223D-05  0.141823D-03  0.115282D-01
     15  0.692638D-02  0.567456D-05  0.225274D-05  0.786039D-04  0.747843D-02
 Quadrupole    = 5.32415163D-01-1.06455998D+00 5.32144813D-01
                -3.00863357D-03 6.25225813D-04-1.67871507D-03
 -------------------------------------------------------------------
 Center     Atomic                   Forces (Hartrees/Bohr)
 Number     Number              X              Y              Z
 -------------------------------------------------------------------
      1        6          -0.000105865   -0.004606261   -0.000050745
      2        1          -0.000050638    0.000383573    0.000057944
      3        1           0.000032718    0.000380675   -0.000075029
      4        1          -0.000036448    0.000528101   -0.000018999
      5        1           0.000160232    0.003313913    0.000086829
 -------------------------------------------------------------------
 Cartesian Forces:  Max     0.004606261 RMS     0.001479457
 From PutF, contents of force:
   1   -0.2509055995D-03
   2   -0.1276211860D-03
   3    0.3952786450D-04
   4    0.9912426129D-04
   5   -0.1828981589D-05
   6    0.9318649941D-03
   7    0.6582579991D-04
   8    0.5794397542D-04
   9   -0.3318548643D-02
 -----------------------------------------------------------------------------------------------
                       Internal Coordinate Forces (Hartree/Bohr or radian)
  Cent   Atom   N1       Length/X         N2         Alpha/Y        N3         Beta/Z          J
 -----------------------------------------------------------------------------------------------
      1  C 
      2  H        1   0.000058(     1)
      3  H        1   0.000066(     2)      2   0.000099(     5)
      4  H        1   0.000040(     3)      2  -0.000002(     6)      3   0.000932(     8)     0
      5  H        1  -0.003319(     4)      2  -0.000128(     7)      3  -0.000251(     9)     0
 -----------------------------------------------------------------------------------------------
 Internal  Forces:  Max     0.003318549 RMS     0.001153712
 Force constants in Cartesian coordinates: 
                1             2             3             4             5 
      1  0.723988D+00
      2  0.311646D-02  0.224639D+00
      3 -0.639198D-03  0.175336D-02  0.724759D+00
      4 -0.115816D+00 -0.148975D-02  0.469510D-03  0.772112D-01
      5 -0.149114D-02 -0.712889D-01  0.140031D-01  0.145547D-02  0.493378D-01
      6  0.000000D+00  0.000000D+00 -0.362127D+00  0.000000D+00  0.000000D+00
      7 -0.300449D+00 -0.730955D-03  0.106484D+00  0.192744D-01 -0.141975D-04
      8  0.113988D-01 -0.713077D-01 -0.826430D-02 -0.284190D-04  0.108420D-01
      9  0.106949D+00 -0.126748D-02 -0.177483D+00  0.334218D-01 -0.246185D-04
     10 -0.300435D+00 -0.747566D-03 -0.106694D+00  0.193035D-01  0.413315D-04
     11 -0.128682D-01 -0.705144D-01 -0.740466D-02  0.542289D-04  0.108410D-01
     12 -0.106688D+00 -0.400939D-03 -0.177440D+00 -0.334068D-01 -0.134529D-03
     13 -0.728809D-02 -0.148192D-03  0.378928D-03  0.265158D-04  0.853936D-05
     14 -0.155918D-03 -0.115278D-01 -0.874587D-04  0.847114D-05  0.268244D-03
     15  0.378866D-03 -0.849425D-04 -0.770943D-02 -0.484526D-03 -0.138439D-01
                6             7             8             9            10 
      6  0.362127D+00
      7  0.000000D+00  0.291018D+00
      8  0.000000D+00  0.713627D-03  0.493397D-01
      9  0.000000D+00 -0.123304D+00  0.123743D-02  0.148318D+00
     10  0.000000D+00 -0.964368D-02 -0.959243D-04 -0.167221D-01  0.290795D+00
     11  0.000000D+00  0.270895D-04  0.108410D-01  0.469732D-04  0.800971D-03
     12  0.000000D+00  0.166892D-01  0.103005D-03  0.289390D-01  0.123442D+00
     13  0.000000D+00 -0.198855D-03 -0.119881D-01 -0.344814D-03 -0.192350D-04
     14  0.000000D+00  0.443634D-05  0.285100D-03  0.769261D-05  0.118772D-05
     15  0.000000D+00  0.129946D-03  0.692386D-02  0.225326D-03 -0.265379D-04
               11            12            13            14            15 
     11  0.493861D-01
     12  0.431301D-03  0.148495D+00
     13  0.119859D-01 -0.363668D-04  0.747967D-02
     14 -0.553690D-03  0.116223D-05  0.141823D-03  0.115282D-01
     15  0.692638D-02  0.567456D-05  0.225274D-05  0.786039D-04  0.747843D-02
 FCInt: Cartesian first derivatives: 
                 1             2             3             4             5 
      1   0.000000D+00  0.000000D+00  0.000000D+00  0.000000D+00  0.000000D+00
      2   0.000000D+00  0.000000D+00  0.000000D+00  0.000000D+00  0.000000D+00
      3   0.000000D+00  0.000000D+00  0.000000D+00  0.000000D+00  0.000000D+00
 FCInt: Cartesian force constants: 
                1             2             3             4             5 
      1  0.723988D+00
      2  0.311646D-02  0.224639D+00
      3 -0.639198D-03  0.175336D-02  0.724759D+00
      4 -0.115816D+00 -0.148975D-02  0.469510D-03  0.772112D-01
      5 -0.149114D-02 -0.712889D-01  0.140031D-01  0.145547D-02  0.493378D-01
      6  0.000000D+00  0.000000D+00 -0.362127D+00  0.000000D+00  0.000000D+00
      7 -0.300449D+00 -0.730955D-03  0.106484D+00  0.192744D-01 -0.141975D-04
      8  0.113988D-01 -0.713077D-01 -0.826430D-02 -0.284190D-04  0.108420D-01
      9  0.106949D+00 -0.126748D-02 -0.177483D+00  0.334218D-01 -0.246185D-04
     10 -0.300435D+00 -0.747566D-03 -0.106694D+00  0.193035D-01  0.413315D-04
     11 -0.128682D-01 -0.705144D-01 -0.740466D-02  0.542289D-04  0.108410D-01
     12 -0.106688D+00 -0.400939D-03 -0.177440D+00 -0.334068D-01 -0.134529D-03
     13 -0.728809D-02 -0.148192D-03  0.378928D-03  0.265158D-04  0.853936D-05
     14 -0.155918D-03 -0.115278D-01 -0.874587D-04  0.847114D-05  0.268244D-03
     15  0.378866D-03 -0.849425D-04 -0.770943D-02 -0.484526D-03 -0.138439D-01
                6             7             8             9            10 
      6  0.362127D+00
      7  0.000000D+00  0.291018D+00
      8  0.000000D+00  0.713627D-03  0.493397D-01
      9  0.000000D+00 -0.123304D+00  0.123743D-02  0.148318D+00
     10  0.000000D+00 -0.964368D-02 -0.959243D-04 -0.167221D-01  0.290795D+00
     11  0.000000D+00  0.270895D-04  0.108410D-01  0.469732D-04  0.800971D-03
     12  0.000000D+00  0.166892D-01  0.103005D-03  0.289390D-01  0.123442D+00
     13  0.000000D+00 -0.198855D-03 -0.119881D-01 -0.344814D-03 -0.192350D-04
     14  0.000000D+00  0.443634D-05  0.285100D-03  0.769261D-05  0.118772D-05
     15  0.000000D+00  0.129946D-03  0.692386D-02  0.225326D-03 -0.265379D-04
               11            12            13            14            15 
     11  0.493861D-01
     12  0.431301D-03  0.148495D+00
     13  0.119859D-01 -0.363668D-04  0.747967D-02
     14 -0.553690D-03  0.116223D-05  0.141823D-03  0.115282D-01
     15  0.692638D-02  0.567456D-05  0.225274D-05  0.786039D-04  0.747843D-02
 Internal force constants: 
                1             2             3             4             5 
      1  0.362127D+00
      2  0.000000D+00  0.362127D+00
      3  0.000000D+00  0.000000D+00  0.362127D+00
      4  0.000000D+00  0.000000D+00  0.000000D+00  0.115347D-01
      5  0.000000D+00  0.000000D+00  0.000000D+00  0.000000D+00  0.320527D+00
      6  0.000000D+00  0.000000D+00  0.000000D+00  0.000000D+00  0.160172D+00
      7  0.000000D+00  0.000000D+00  0.000000D+00  0.000000D+00  0.300509D-02
      8  0.000000D+00  0.000000D+00  0.000000D+00  0.000000D+00 -0.427910D-03
      9  0.000000D+00  0.000000D+00  0.000000D+00  0.000000D+00 -0.459771D-02
                6             7             8             9 
      6  0.320348D+00
      7  0.757168D-04  0.240305D+00
      8 -0.696531D-04 -0.692867D-01  0.153694D+00
      9 -0.485313D-03 -0.159716D-04 -0.119973D+00  0.240144D+00
 Frcnst in PutFF: 
                1             2             3             4             5 
      1  0.240144D+00
      2 -0.159716D-04  0.240305D+00
      3  0.000000D+00  0.000000D+00  0.362127D+00
      4 -0.459771D-02  0.300509D-02  0.000000D+00  0.320527D+00
      5 -0.485313D-03  0.757168D-04  0.000000D+00  0.160172D+00  0.320348D+00
      6 -0.119973D+00 -0.692867D-01  0.000000D+00 -0.427910D-03 -0.696531D-04
      7  0.000000D+00  0.000000D+00  0.000000D+00  0.000000D+00  0.000000D+00
      8  0.000000D+00  0.000000D+00  0.000000D+00  0.000000D+00  0.000000D+00
      9  0.000000D+00  0.000000D+00  0.000000D+00  0.000000D+00  0.000000D+00
                6             7             8             9 
      6  0.153694D+00
      7  0.000000D+00  0.362127D+00
      8  0.000000D+00  0.000000D+00  0.362127D+00
      9  0.000000D+00  0.000000D+00  0.000000D+00  0.115347D-01
 Force constants in internal coordinates: 
                1             2             3             4             5 
      1  0.362127D+00
      2  0.000000D+00  0.362127D+00
      3  0.000000D+00  0.000000D+00  0.362127D+00
      4  0.000000D+00  0.000000D+00  0.000000D+00  0.115347D-01
      5  0.000000D+00  0.000000D+00  0.000000D+00  0.000000D+00  0.320527D+00
      6  0.000000D+00  0.000000D+00  0.000000D+00  0.000000D+00  0.160172D+00
      7  0.000000D+00  0.000000D+00  0.000000D+00  0.000000D+00  0.300509D-02
      8  0.000000D+00  0.000000D+00  0.000000D+00  0.000000D+00 -0.427910D-03
      9  0.000000D+00  0.000000D+00  0.000000D+00  0.000000D+00 -0.459771D-02
                6             7             8             9 
      6  0.320348D+00
      7  0.757168D-04  0.240305D+00
      8 -0.696531D-04 -0.692867D-01  0.153694D+00
      9 -0.485313D-03 -0.159716D-04 -0.119973D+00  0.240144D+00
 Final forces over variables, Energy=-4.03432384D+01:
 -2.50905600D-04-1.27621186D-04 3.95278645D-05 9.91242613D-05
 -1.82898159D-06 9.31864994D-04 6.58257999D-05 5.79439754D-05
 -3.31854864D-03

 GradGradGradGradGradGradGradGradGradGradGradGradGradGradGradGradGradGrad
 Berny optimization.
 Search for a local minimum.
 Step number   1 out of a maximum of   50
 All quantities printed in internal units (Hartrees-Bohrs-Radians)
 Second derivative matrix not updated -- first step.
 The second derivative matrix:
                         BABS1     AABS1      R3        A2        A3
           BABS1        0.24014
           AABS1       -0.00002   0.24030
           R3           0.00000   0.00000   0.36213
           A2          -0.00460   0.00301  -0.00000   0.32053
           A3          -0.00049   0.00008  -0.00000   0.16017   0.32035
           D3          -0.11997  -0.06929  -0.00000  -0.00043  -0.00007
           R2           0.00000   0.00000  -0.00000   0.00000   0.00000
           R1           0.00000   0.00000   0.00000   0.00000   0.00000
           RTS          0.00000  -0.00000  -0.00000   0.00000   0.00000
                          D3        R2        R1        RTS
           D3           0.15369
           R2          -0.00000   0.36213
           R1           0.00000   0.00000   0.36213
           RTS          0.00000   0.00000   0.00000   0.01153
 ITU=  0
     Eigenvalues ---    0.24014   0.240311000.000001000.000001000.00000
     Eigenvalues --- 1000.000001000.000001000.000001000.00000
 RFO step:  Lambda=-3.29944726D-07 EMin= 2.40142080D-01
 Linear search not attempted -- first point.
 Variable       Old X    -DE/DX   Delta X   Delta X   Delta X     New X
                                 (Linear)    (Quad)   (Total)
  BABS1       1.60577  -0.00025   0.00000  -0.00104  -0.00104   1.60472
  AABS1       1.59018  -0.00013   0.00000  -0.00053  -0.00053   1.58965
    R3        2.03750   0.00004   0.00000   0.00000   0.00000   2.03750
    A2        2.09391   0.00010   0.00000   0.00000   0.00000   2.09391
    A3        2.09476  -0.00000   0.00000   0.00000   0.00000   2.09476
    D3        3.13823   0.00093   0.00000   0.00000   0.00000   3.13823
    R2        2.03750   0.00007   0.00000   0.00000   0.00000   2.03750
    R1        2.03750   0.00006   0.00000   0.00000   0.00000   2.03750
   RTS        5.66918  -0.00332   0.00000   0.00000   0.00000   5.66918
         Item               Value     Threshold  Converged?
 Maximum Force            0.000251     0.000450     YES
 RMS     Force            0.000199     0.000300     YES
 Maximum Displacement     0.001045     0.001800     YES
 RMS     Displacement     0.000391     0.001200     YES
 Predicted change in Energy=-1.649724D-07
 Optimization completed.
    -- Stationary point found.
                       ----------------------------
                       !   Optimized Parameters   !
                       ! (Angstroms and Degrees)  !
 ----------------------                            ----------------------
 !      Name          Value   Derivative information (Atomic Units)     !
 ------------------------------------------------------------------------
 !      BABS1       92.0037   -DE/DX =   -0.0003                        !
 !      AABS1       91.1106   -DE/DX =   -0.0001                        !
 !       R3          1.0782   -DE/DX =    0.0                           !
 !       A2        119.9721   -DE/DX =    0.0001                        !
 !       A3        120.0207   -DE/DX =    0.0                           !
 !       D3        179.8076   -DE/DX =    0.0009                        !
 !       R2          1.0782   -DE/DX =    0.0001                        !
 !       R1          1.0782   -DE/DX =    0.0001                        !
 !       RTS         3.0      -DE/DX =   -0.0033                        !
 ------------------------------------------------------------------------
 GradGradGradGradGradGradGradGradGradGradGradGradGradGradGradGradGradGrad

 ---------------------------------------------------------------------------------------------------
                            Z-MATRIX (ANGSTROMS AND DEGREES)
   CD    Cent   Atom    N1       Length/X        N2       Alpha/Y        N3        Beta/Z          J
 ---------------------------------------------------------------------------------------------------
      1      1  C 
      2      2  H        1   1.078200(     1)
      3      3  H        1   1.078200(     2)      2  119.972(     5)
      4      4  H        1   1.078200(     3)      2  120.021(     6)      3  179.808(     8)      0
      5      5  H        1   3.000000(     4)      2   91.111(     7)      3   92.004(     9)      0
 ---------------------------------------------------------------------------------------------------
                         Z-Matrix orientation:                         
 ---------------------------------------------------------------------
 Center     Atomic      Atomic             Coordinates (Angstroms)
 Number     Number       Type             X           Y           Z
 ---------------------------------------------------------------------
      1          6           0        0.000000    0.000000    0.000000
      2          1           0        0.000000    0.000000    1.078200
      3          1           0        0.934011    0.000000   -0.538645
      4          1           0       -0.933548   -0.003135   -0.539437
      5          1           0       -0.104872   -2.997602   -0.058147
 ---------------------------------------------------------------------
                    Distance matrix (angstroms):
                    1          2          3          4          5
     1  C    0.000000
     2  H    1.078200   0.000000
     3  H    1.078200   1.867235   0.000000
     4  H    1.078200   1.867692   1.867562   0.000000
     5  H    3.000000   3.207476   3.208703   3.144071   0.000000
 Symmetry turned off by external request.
 Stoichiometry    CH4
 Framework group  C1[X(CH4)]
 Deg. of freedom     9
 Full point group                 C1      NOp   1
 Rotational constants (GHZ):    143.9440706     49.2720164     49.2579238

 Test job not archived.
 1\1\GINC-NODE-6-11\POpt\UwB97XD\Aug-CC-pVTZ\C1H4\CAVALLOTTI\03-Jun-202
 3\1\\# uwb97xd/aug-cc-pvtz opt=(noeig,intern,maxcyc=50) # int=ultrafin
 e nosym iop(7/33=1) guess=(mix,always)\\geom 0\\0,1\C\H,1,R1\H,1,R2,2,
 A2\H,1,R3,2,A3,3,D3,0\H,1,RTS,2,AABS1,3,BABS1,0\\BABS1=92.0037\AABS1=9
 1.1106\R3=1.0782\A2=119.9721\A3=120.0207\D3=179.8076\R2=1.0782\R1=1.07
 82\RTS=3.\\Version=EM64L-G09RevD.01\HF=-40.3432384\S2=0.954483\S2-1=0.
 \S2A=0.027481\RMSD=9.473e-09\RMSF=1.479e-03\Dipole=0.001883,0.0645635,
 0.0010555\Quadrupole=0.5324152,-1.06456,0.5321448,-0.0030086,0.0006252
 ,-0.0016787\PG=C01 [X(C1H4)]\\@


 MODELS ARE TO BE USED, NOT BELIEVED.

    -- PARAPHRASED BY H. THIEL IN "PRINCIPLES OF ECONOMETRICS"
 Job cpu time:       0 days  0 hours  2 minutes  0.6 seconds.
 File lengths (MBytes):  RWF=     66 Int=      0 D2E=      0 Chk=      3 Scr=      1
 Normal termination of Gaussian 09 at Sat Jun  3 08:59:55 2023.
