 Entering Gaussian System, Link 0=g09
 Input=geom.com
 Output=geom.log
 Initial command:
 /software/cinetica/g09d1/g09d01/d01/build-node-6-2-59348/src/main/l1.exe "/scratch/cc/140687/Gau-151557.inp" -scrdir="/scratch/cc/140687/"
 Entering Link 1 = /software/cinetica/g09d1/g09d01/d01/build-node-6-2-59348/src/main/l1.exe PID=    151558.
  
 Copyright (c) 1988,1990,1992,1993,1995,1998,2003,2009,2013,
            Gaussian, Inc.  All Rights Reserved.
  
 This is part of the Gaussian(R) 09 program.  It is based on
 the Gaussian(R) 03 system (copyright 2003, Gaussian, Inc.),
 the Gaussian(R) 98 system (copyright 1998, Gaussian, Inc.),
 the Gaussian(R) 94 system (copyright 1995, Gaussian, Inc.),
 the Gaussian 92(TM) system (copyright 1992, Gaussian, Inc.),
 the Gaussian 90(TM) system (copyright 1990, Gaussian, Inc.),
 the Gaussian 88(TM) system (copyright 1988, Gaussian, Inc.),
 the Gaussian 86(TM) system (copyright 1986, Carnegie Mellon
 University), and the Gaussian 82(TM) system (copyright 1983,
 Carnegie Mellon University). Gaussian is a federally registered
 trademark of Gaussian, Inc.
  
 This software contains proprietary and confidential information,
 including trade secrets, belonging to Gaussian, Inc.
  
 This software is provided under written license and may be
 used, copied, transmitted, or stored only in accord with that
 written license.
  
 The following legend is applicable only to US Government
 contracts under FAR:
  
                    RESTRICTED RIGHTS LEGEND
  
 Use, reproduction and disclosure by the US Government is
 subject to restrictions as set forth in subparagraphs (a)
 and (c) of the Commercial Computer Software - Restricted
 Rights clause in FAR 52.227-19.
  
 Gaussian, Inc.
 340 Quinnipiac St., Bldg. 40, Wallingford CT 06492
  
  
 ---------------------------------------------------------------
 Warning -- This program may not be used in any manner that
 competes with the business of Gaussian, Inc. or will provide
 assistance to any competitor of Gaussian, Inc.  The licensee
 of this program is prohibited from giving any competitor of
 Gaussian, Inc. access to this program.  By using this program,
 the user acknowledges that Gaussian, Inc. is engaged in the
 business of creating and licensing software in the field of
 computational chemistry and represents and warrants to the
 licensee that it is not a competitor of Gaussian, Inc. and that
 it will not use this program in any manner prohibited above.
 ---------------------------------------------------------------
  

 Cite this work as:
 Gaussian 09, Revision D.01,
 M. J. Frisch, G. W. Trucks, H. B. Schlegel, G. E. Scuseria, 
 M. A. Robb, J. R. Cheeseman, G. Scalmani, V. Barone, B. Mennucci, 
 G. A. Petersson, H. Nakatsuji, M. Caricato, X. Li, H. P. Hratchian, 
 A. F. Izmaylov, J. Bloino, G. Zheng, J. L. Sonnenberg, M. Hada, 
 M. Ehara, K. Toyota, R. Fukuda, J. Hasegawa, M. Ishida, T. Nakajima, 
 Y. Honda, O. Kitao, H. Nakai, T. Vreven, J. A. Montgomery, Jr., 
 J. E. Peralta, F. Ogliaro, M. Bearpark, J. J. Heyd, E. Brothers, 
 K. N. Kudin, V. N. Staroverov, T. Keith, R. Kobayashi, J. Normand, 
 K. Raghavachari, A. Rendell, J. C. Burant, S. S. Iyengar, J. Tomasi, 
 M. Cossi, N. Rega, J. M. Millam, M. Klene, J. E. Knox, J. B. Cross, 
 V. Bakken, C. Adamo, J. Jaramillo, R. Gomperts, R. E. Stratmann, 
 O. Yazyev, A. J. Austin, R. Cammi, C. Pomelli, J. W. Ochterski, 
 R. L. Martin, K. Morokuma, V. G. Zakrzewski, G. A. Voth, 
 P. Salvador, J. J. Dannenberg, S. Dapprich, A. D. Daniels, 
 O. Farkas, J. B. Foresman, J. V. Ortiz, J. Cioslowski, 
 and D. J. Fox, Gaussian, Inc., Wallingford CT, 2013.
 
 ******************************************
 Gaussian 09:  EM64L-G09RevD.01 24-Apr-2013
                 3-Jun-2023 
 ******************************************
 %mem=400MW
 %chk=tmp
 %NProcShared= 32
 Will use up to   32 processors via shared memory.
 ----------------------------------------------------------------------
 # uwb97xd/aug-cc-pvtz opt=(noeig,intern,maxcyc=50) # int=ultrafine nos
 ym freq iop(7/33=1) guess=(mix,always)
 ----------------------------------------------------------------------
 1/6=50,10=7,11=1,14=-1,18=40,26=4,38=1/1,3;
 2/12=2,15=1,17=6,18=5,29=3,40=1/2;
 3/5=16,6=1,7=10,11=2,16=1,25=1,30=1,71=1,74=-58,75=-5,116=2/1,2,3;
 4/13=-1/1;
 5/5=2,38=5/2;
 6/7=2,8=2,9=2,10=2,28=1/1;
 7/29=1,30=1,33=1/1,2,3,16;
 1/6=50,10=7,11=1,14=-1,18=40,26=4/3(2);
 2/15=1,29=3/2;
 99//99;
 2/15=1,29=3/2;
 3/5=16,6=1,7=10,11=2,16=1,25=1,30=1,71=1,74=-58,75=-5,116=2/1,2,3;
 4/13=-1/1;
 5/5=2,38=5/2;
 7/30=1,33=1/1,2,3,16;
 1/6=50,11=1,14=-1,18=40,26=4/3(-5);
 2/15=1,29=3/2;
 6/7=2,8=2,9=2,10=2,19=2,28=1/1;
 99/9=1/99;
 ------
 geom 0
 ------
 Symbolic Z-matrix:
 Charge =  0 Multiplicity = 1
 C1
 H2                   C1   R1
 H3                   C1   R2       H2   A2
 H4                   C1   R3       H2   A3       H3   D3       0
 H21                  C1   BB       H2   ANG1     H3   DH1      0
       Variables:
  R1                    1.0791                   
  R2                    1.0791                   
  R3                    1.0791                   
  A2                  117.1143                   
  A3                  117.1221                   
  D3                  213.1119                   
  DH1                 106.5501                   
  ANG1                 99.8829                   
       Constants:
  BB                    3.                       
 

 GradGradGradGradGradGradGradGradGradGradGradGradGradGradGradGradGradGrad
 Berny optimization.
 Initialization pass.
                       ----------------------------
                       !    Initial Parameters    !
                       ! (Angstroms and Degrees)  !
 ----------------------                            ----------------------
 !      Name          Value   Derivative information (Atomic Units)     !
 ------------------------------------------------------------------------
 !       R1          1.0791   estimate D2E/DX2                          !
 !       R2          1.0791   estimate D2E/DX2                          !
 !       R3          1.0791   estimate D2E/DX2                          !
 !       A2        117.1143   estimate D2E/DX2                          !
 !       A3        117.1221   estimate D2E/DX2                          !
 !       D3        213.1119   estimate D2E/DX2                          !
 !       DH1       106.5501   estimate D2E/DX2                          !
 !      ANG1        99.8829   estimate D2E/DX2                          !
 !       BB          3.0      Frozen                                    !
 ------------------------------------------------------------------------
 Trust Radius=3.00D-01 FncErr=1.00D-07 GrdErr=1.00D-06
 Number of steps in this run=     50 maximum allowed number of steps=    100.
 GradGradGradGradGradGradGradGradGradGradGradGradGradGradGradGradGradGrad

 ---------------------------------------------------------------------------------------------------
                            Z-MATRIX (ANGSTROMS AND DEGREES)
   CD    Cent   Atom    N1       Length/X        N2       Alpha/Y        N3        Beta/Z          J
 ---------------------------------------------------------------------------------------------------
      1      1  C 
      2      2  H        1   1.079100(     1)
      3      3  H        1   1.079100(     2)      2  117.114(     5)
      4      4  H        1   1.079100(     3)      2  117.122(     6)      3  213.112(     8)      0
      5      5  H        1   3.000000(     4)      2   99.883(     7)      3  106.550(     9)      0
 ---------------------------------------------------------------------------------------------------
                         Z-Matrix orientation:                         
 ---------------------------------------------------------------------
 Center     Atomic      Atomic             Coordinates (Angstroms)
 Number     Number       Type             X           Y           Z
 ---------------------------------------------------------------------
      1          6           0        0.000000    0.000000    0.000000
      2          1           0        0.000000    0.000000    1.079100
      3          1           0        0.960506    0.000000   -0.491818
      4          1           0       -0.804469    0.524665   -0.491949
      5          1           0       -0.841880   -2.833039   -0.514905
 ---------------------------------------------------------------------
                    Distance matrix (angstroms):
                    1          2          3          4          5
     1  C    0.000000
     2  H    1.079100   0.000000
     3  H    1.079100   1.841292   0.000000
     4  H    1.079100   1.841369   1.841306   0.000000
     5  H    3.000000   3.357935   3.357862   3.357991   0.000000
 Symmetry turned off by external request.
 Stoichiometry    CH4
 Framework group  C1[X(CH4)]
 Deg. of freedom     9
 Full point group                 C1      NOp   1
 Rotational constants (GHZ):    147.9014650     48.1130956     48.1122959
 Standard basis: Aug-CC-pVTZ (5D, 7F)
   138 basis functions,   180 primitive gaussians,   155 cartesian basis functions
     5 alpha electrons        5 beta electrons
       nuclear repulsion energy        11.2202707827 Hartrees.
 NAtoms=    5 NActive=    5 NUniq=    5 SFac= 1.00D+00 NAtFMM=   60 NAOKFM=F Big=F
 Integral buffers will be    131072 words long.
 Raffenetti 2 integral format.
 Two-electron integral symmetry is turned off.
 Nuclear repulsion after empirical dispersion term =       11.2197527783 Hartrees.
 One-electron integrals computed using PRISM.
 NBasis=   138 RedAO= T EigKep=  1.10D-04  NBF=   138
 NBsUse=   138 1.00D-06 EigRej= -1.00D+00 NBFU=   138
 ExpMin= 2.53D-02 ExpMax= 8.24D+03 ExpMxC= 2.81D+02 IAcc=3 IRadAn=         5 AccDes= 0.00D+00
 Harris functional with IExCor= 4639 and IRadAn=       5 diagonalized for initial guess.
 HarFok:  IExCor= 4639 AccDes= 0.00D+00 IRadAn=         5 IDoV= 1 UseB2=F ITyADJ=14
 ICtDFT=  3500011 ScaDFX=  1.000000  1.000000  1.000000  1.000000
 FoFCou: FMM=F IPFlag=           0 FMFlag=      100000 FMFlg1=           0
         NFxFlg=           0 DoJE=T BraDBF=F KetDBF=T FulRan=T
         wScrn=  0.000000 ICntrl=     500 IOpCl=  0 I1Cent=   200000004 NGrid=           0
         NMat0=    1 NMatS0=      1 NMatT0=    0 NMatD0=    1 NMtDS0=    0 NMtDT0=    0
 Symmetry not used in FoFCou.
 Mixing orbitals, IMix= 1 IMixAn=  0 NRI=1 NE=    5 Coef=  7.07106781D-01  7.07106781D-01
 Mixing orbitals, IMix= 1 IMixAn=  0 NRI=1 NE=    5 Coef= -7.07106781D-01  7.07106781D-01
 Initial guess <Sx>= 0.0000 <Sy>= 0.0000 <Sz>= 0.0000 <S**2>= 1.0000 S= 0.6180
 Keep R1 and R2 ints in memory in canonical form, NReq=186089057.
 Requested convergence on RMS density matrix=1.00D-08 within 128 cycles.
 Requested convergence on MAX density matrix=1.00D-06.
 Requested convergence on             energy=1.00D-06.
 No special actions if energy rises.
 SCF Done:  E(UwB97XD) =  -40.3415409713     A.U. after   15 cycles
            NFock= 15  Conv=0.43D-08     -V/T= 2.0073
 <Sx>= 0.0000 <Sy>= 0.0000 <Sz>= 0.0000 <S**2>= 0.9505 S= 0.5957
 <L.S>=  0.00000000000    
 Annihilation of the first spin contaminant:
 S**2 before annihilation     0.9505,   after     0.0246

 **********************************************************************

            Population analysis using the SCF density.

 **********************************************************************

 Alpha  occ. eigenvalues --  -10.30158  -0.79063  -0.50788  -0.50786  -0.32649
 Alpha virt. eigenvalues --    0.01473   0.04188   0.05181   0.05181   0.11573
 Alpha virt. eigenvalues --    0.12666   0.13051   0.13051   0.14231   0.20247
 Alpha virt. eigenvalues --    0.20247   0.21431   0.21432   0.27196   0.31202
 Alpha virt. eigenvalues --    0.31202   0.31945   0.32991   0.32992   0.34538
 Alpha virt. eigenvalues --    0.35520   0.38237   0.38679   0.38679   0.42113
 Alpha virt. eigenvalues --    0.42114   0.44922   0.46671   0.46672   0.60083
 Alpha virt. eigenvalues --    0.60083   0.60140   0.61935   0.70047   0.74802
 Alpha virt. eigenvalues --    0.74803   0.78212   0.78212   0.80159   0.80159
 Alpha virt. eigenvalues --    0.81015   0.81631   0.90062   0.92810   0.92811
 Alpha virt. eigenvalues --    0.93562   0.95922   0.95923   0.96448   0.96448
 Alpha virt. eigenvalues --    1.02182   1.02183   1.02188   1.03364   1.06310
 Alpha virt. eigenvalues --    1.06312   1.11219   1.11220   1.17118   1.17119
 Alpha virt. eigenvalues --    1.18362   1.25016   1.38559   1.39127   1.39130
 Alpha virt. eigenvalues --    1.48183   1.48184   1.51244   1.51245   1.51459
 Alpha virt. eigenvalues --    1.52090   1.54544   1.74488   1.75682   1.75683
 Alpha virt. eigenvalues --    1.89876   1.89879   1.90515   2.03742   2.03745
 Alpha virt. eigenvalues --    2.07865   2.77949   2.77950   2.83201   2.92094
 Alpha virt. eigenvalues --    3.07060   3.07061   3.08400   3.35084   3.35086
 Alpha virt. eigenvalues --    3.36006   3.37540   3.38399   3.38400   3.43207
 Alpha virt. eigenvalues --    3.48585   3.48587   3.72349   3.72554   3.72555
 Alpha virt. eigenvalues --    3.74690   3.77921   3.77922   3.87788   3.87789
 Alpha virt. eigenvalues --    3.95058   3.95058   4.00355   4.16154   4.16158
 Alpha virt. eigenvalues --    4.16847   4.19098   4.19101   4.25719   4.48081
 Alpha virt. eigenvalues --    4.48082   4.48130   4.64720   4.64722   4.69948
 Alpha virt. eigenvalues --    4.84241   4.99642   4.99648   5.05736   5.05736
 Alpha virt. eigenvalues --    5.21222   5.47510   5.47515   5.87133   5.92067
 Alpha virt. eigenvalues --    6.19394   6.19402  15.95787
  Beta  occ. eigenvalues --  -10.29048  -0.74848  -0.49538  -0.49536  -0.39570
  Beta virt. eigenvalues --   -0.00576   0.04080   0.05329   0.05329   0.06332
  Beta virt. eigenvalues --    0.12989   0.12989   0.13386   0.14216   0.19889
  Beta virt. eigenvalues --    0.19890   0.20493   0.20493   0.25148   0.29241
  Beta virt. eigenvalues --    0.29241   0.30340   0.32951   0.32952   0.34509
  Beta virt. eigenvalues --    0.34803   0.38030   0.38622   0.38775   0.38776
  Beta virt. eigenvalues --    0.41516   0.41517   0.46768   0.46768   0.49449
  Beta virt. eigenvalues --    0.59862   0.59862   0.60471   0.70996   0.75085
  Beta virt. eigenvalues --    0.75086   0.77322   0.77323   0.79192   0.79192
  Beta virt. eigenvalues --    0.80701   0.81618   0.89470   0.91051   0.91052
  Beta virt. eigenvalues --    0.91199   0.94183   0.94184   0.96950   0.96951
  Beta virt. eigenvalues --    0.99533   0.99534   0.99548   1.03160   1.06070
  Beta virt. eigenvalues --    1.06071   1.10652   1.10653   1.15474   1.16517
  Beta virt. eigenvalues --    1.16518   1.19713   1.35326   1.39004   1.39006
  Beta virt. eigenvalues --    1.48420   1.48424   1.51570   1.51873   1.51873
  Beta virt. eigenvalues --    1.53847   1.55080   1.75708   1.76476   1.76477
  Beta virt. eigenvalues --    1.90364   1.91039   1.91043   2.03955   2.03958
  Beta virt. eigenvalues --    2.10011   2.44634   2.78948   2.78949   2.87974
  Beta virt. eigenvalues --    2.95064   3.09710   3.09715   3.37723   3.37726
  Beta virt. eigenvalues --    3.38043   3.38702   3.42025   3.42026   3.46952
  Beta virt. eigenvalues --    3.50118   3.50121   3.67294   3.67294   3.73480
  Beta virt. eigenvalues --    3.73481   3.73773   3.74137   3.74138   3.75073
  Beta virt. eigenvalues --    3.83810   3.83810   3.88197   3.94336   3.96472
  Beta virt. eigenvalues --    3.96472   4.18090   4.20282   4.20285   4.48137
  Beta virt. eigenvalues --    4.48137   4.48493   4.65241   4.65243   4.69692
  Beta virt. eigenvalues --    4.85850   5.00103   5.00109   5.08172   5.08173
  Beta virt. eigenvalues --    5.22305   5.48277   5.48282   5.88674   5.93223
  Beta virt. eigenvalues --    6.20189   6.20198  15.98297
          Condensed to atoms (all electrons):
               1          2          3          4          5
     1  C    5.920837   0.353871   0.353770   0.353955   0.021484
     2  H    0.353871   0.295497   0.009154   0.009139  -0.001574
     3  H    0.353770   0.009154   0.295411   0.009141  -0.001586
     4  H    0.353955   0.009139   0.009141   0.295586  -0.001579
     5  H    0.021484  -0.001574  -0.001586  -0.001579   0.981119
          Atomic-Atomic Spin Densities.
               1          2          3          4          5
     1  C    0.953299   0.016523   0.016608   0.016463  -0.005970
     2  H    0.016523  -0.030720   0.002609   0.002620   0.001894
     3  H    0.016608   0.002609  -0.030655   0.002620   0.001905
     4  H    0.016463   0.002620   0.002620  -0.030789   0.001899
     5  H   -0.005970   0.001894   0.001905   0.001899  -0.975478
 Mulliken charges and spin densities:
               1          2
     1  C   -1.003917   0.996923
     2  H    0.333914  -0.007074
     3  H    0.334110  -0.006912
     4  H    0.333758  -0.007187
     5  H    0.002135  -0.975750
 Sum of Mulliken charges =  -0.00000   0.00000
 Mulliken charges and spin densities with hydrogens summed into heavy atoms:
               1          2
     1  C   -0.000000   0.000000
 Electronic spatial extent (au):  <R**2>=             65.3915
 Charge=             -0.0000 electrons
 Dipole moment (field-independent basis, Debye):
    X=              0.1416    Y=              0.4762    Z=              0.0866  Tot=              0.5043
 Quadrupole moment (field-independent basis, Debye-Ang):
   XX=             -8.8611   YY=            -10.3114   ZZ=             -8.7730
   XY=             -0.4728   XZ=             -0.0858   YZ=             -0.2892
 Traceless Quadrupole moment (field-independent basis, Debye-Ang):
   XX=              0.4541   YY=             -0.9962   ZZ=              0.5422
   XY=             -0.4728   XZ=             -0.0858   YZ=             -0.2892
 Octapole moment (field-independent basis, Debye-Ang**2):
  XXX=              3.7631  YYY=             11.8233  ZZZ=              3.0562  XYY=              0.9885
  XXY=              4.1668  XXZ=             -0.0361  XZZ=              1.1745  YZZ=              3.9529
  YYZ=              0.6047  XYZ=              0.2090
 Hexadecapole moment (field-independent basis, Debye-Ang**3):
 XXXX=            -23.0266 YYYY=            -84.6132 ZZZZ=            -19.0983 XXXY=            -10.1657
 XXXZ=             -2.0355 YYYX=             -9.9078 YYYZ=             -6.0599 ZZZX=             -1.8030
 ZZZY=             -6.0678 XXYY=            -18.0157 XXZZ=             -7.1324 YYZZ=            -17.5772
 XXYZ=             -2.2321 YYXZ=             -0.4287 ZZXY=             -3.4045
 N-N= 1.121975277834D+01 E-N=-1.152957237409D+02  KE= 4.005085414792D+01
                          Isotropic Fermi Contact Couplings
        Atom                 a.u.       MegaHertz       Gauss      10(-4) cm-1
     1  C(13)              0.07689      43.21942      15.42176      14.41645
     2  H(1)              -0.01071     -23.94183      -8.54304      -7.98613
     3  H(1)              -0.01071     -23.93755      -8.54151      -7.98471
     4  H(1)              -0.01072     -23.95604      -8.54811      -7.99087
     5  H(1)              -0.28652    -640.34692    -228.49170    -213.59674
 --------------------------------------------------------
       Center         ----  Spin Dipole Couplings  ----
                      3XX-RR        3YY-RR        3ZZ-RR
 --------------------------------------------------------
     1   Atom       -0.404841      0.888197     -0.483356
     2   Atom       -0.063721     -0.010448      0.074169
     3   Atom        0.044722     -0.010449     -0.034273
     4   Atom        0.023696      0.010567     -0.034263
     5   Atom       -0.006041      0.013250     -0.007210
 --------------------------------------------------------
                        XY            XZ            YZ
 --------------------------------------------------------
     1   Atom        0.421668      0.076639      0.257798
     2   Atom        0.017373     -0.000987     -0.003324
     3   Atom        0.004949     -0.056522      0.016981
     4   Atom       -0.027240      0.056614     -0.016659
     5   Atom        0.006287      0.001143      0.003846
 --------------------------------------------------------


 ---------------------------------------------------------------------------------
              Anisotropic Spin Dipole Couplings in Principal Axis System
 ---------------------------------------------------------------------------------

       Atom             a.u.   MegaHertz   Gauss  10(-4) cm-1        Axes

              Baa    -0.5302   -71.149   -25.388   -23.733 -0.0197 -0.1731  0.9847
     1 C(13)  Bbb    -0.5302   -71.147   -25.387   -23.732  0.9596 -0.2798 -0.0300
              Bcc     1.0604   142.297    50.775    47.465  0.2807  0.9443  0.1716
 
              Baa    -0.0689   -36.754   -13.115   -12.260  0.9585 -0.2850 -0.0000
     2 H(1)   Bbb    -0.0054    -2.899    -1.035    -0.967  0.2847  0.9576  0.0435
              Bcc     0.0743    39.653    14.149    13.227 -0.0124 -0.0417  0.9991
 
              Baa    -0.0689   -36.755   -13.115   -12.260  0.4369 -0.2849  0.8532
     3 H(1)   Bbb    -0.0054    -2.901    -1.035    -0.968  0.1686  0.9576  0.2335
              Bcc     0.0743    39.656    14.150    13.228  0.8836 -0.0418 -0.4664
 
              Baa    -0.0689   -36.753   -13.114   -12.259 -0.5217  0.0000  0.8531
     4 H(1)   Bbb    -0.0054    -2.896    -1.033    -0.966  0.3821  0.8941  0.2336
              Bcc     0.0743    39.649    14.148    13.225  0.7628 -0.4479  0.4665
 
              Baa    -0.0079    -4.220    -1.506    -1.408  0.7756 -0.3284  0.5390
     5 H(1)   Bbb    -0.0079    -4.220    -1.506    -1.408 -0.5654  0.0181  0.8246
              Bcc     0.0158     8.440     3.011     2.815  0.2806  0.9444  0.1717
 

 ---------------------------------------------------------------------------------

 DipInt: DoE/N= T T RetVal/Mat= T F Init=T NMatP=  1 IDeriv=0 Min/MaxMlt=  1  1
 Entering OneElI...
 Multipole integrals L=1 to 1 MinM= 0 MaxM= 0.
 Requested accuracy = 0.1000D-12
 PrsmSu:  NPrtUS=   1 ThrOK=F IAlg=1 NPAlg=1 LenDen=           0.
 Prism:   IPart=     0 DynPar=F LinDyn=F Incr=          12.
 PRISM was handed   419324018 working-precision words and  1275 shell-pairs
 IPart=  0 NShTot=        1275 NBatch=          42 AvBLen=        30.4
 PrSmSu:  NxtVal=             13.
 Entering OneElI...
 Calculate overlap and kinetic energy integrals
    NBasis = 155  MinDer = 1  MaxDer = 1
 Requested accuracy = 0.1000D-12
 PrsmSu:  NPrtUS=  32 ThrOK=T IAlg=1 NPAlg=1 LenDen=           0.
 Prism:   IPart=     0 DynPar=F LinDyn=F Incr=           1.
 PRISM was handed    13082659 working-precision words and  1275 shell-pairs
 PRISM was handed    13082659 working-precision words and  1275 shell-pairs
 PRISM was handed    13082659 working-precision words and  1275 shell-pairs
 PRISM was handed    13082659 working-precision words and  1275 shell-pairs
 PRISM was handed    13082659 working-precision words and  1275 shell-pairs
 PRISM was handed    13082659 working-precision words and  1275 shell-pairs
 PRISM was handed    13082659 working-precision words and  1275 shell-pairs
 PRISM was handed    13082659 working-precision words and  1275 shell-pairs
 PRISM was handed    13082659 working-precision words and  1275 shell-pairs
 PRISM was handed    13082659 working-precision words and  1275 shell-pairs
 PRISM was handed    13082659 working-precision words and  1275 shell-pairs
 PRISM was handed    13082659 working-precision words and  1275 shell-pairs
 PRISM was handed    13082659 working-precision words and  1275 shell-pairs
 PRISM was handed    13082659 working-precision words and  1275 shell-pairs
 PRISM was handed    13082659 working-precision words and  1275 shell-pairs
 PRISM was handed    13082659 working-precision words and  1275 shell-pairs
 PRISM was handed    13082659 working-precision words and  1275 shell-pairs
 PRISM was handed    13082659 working-precision words and  1275 shell-pairs
 PRISM was handed    13082659 working-precision words and  1275 shell-pairs
 PRISM was handed    13082659 working-precision words and  1275 shell-pairs
 PRISM was handed    13082659 working-precision words and  1275 shell-pairs
 PRISM was handed    13082659 working-precision words and  1275 shell-pairs
 PRISM was handed    13082659 working-precision words and  1275 shell-pairs
 PRISM was handed    13082659 working-precision words and  1275 shell-pairs
 PRISM was handed    13082659 working-precision words and  1275 shell-pairs
 PRISM was handed    13082659 working-precision words and  1275 shell-pairs
 PRISM was handed    13082659 working-precision words and  1275 shell-pairs
 PRISM was handed    13082659 working-precision words and  1275 shell-pairs
 PRISM was handed    13082659 working-precision words and  1275 shell-pairs
 PRISM was handed    13082659 working-precision words and  1275 shell-pairs
 PRISM was handed    13082659 working-precision words and  1275 shell-pairs
 PRISM was handed    13082659 working-precision words and  1275 shell-pairs
 IPart= 30 NShTot=          29 NBatch=           9 AvBLen=         3.2
 IPart= 28 NShTot=          31 NBatch=          11 AvBLen=         2.8
 IPart=  0 NShTot=          67 NBatch=          38 AvBLen=         1.8
 IPart=  3 NShTot=          50 NBatch=          23 AvBLen=         2.2
 IPart= 23 NShTot=          34 NBatch=          11 AvBLen=         3.1
 IPart= 18 NShTot=          35 NBatch=          12 AvBLen=         2.9
 IPart= 10 NShTot=          45 NBatch=          20 AvBLen=         2.3
 IPart= 25 NShTot=          32 NBatch=          11 AvBLen=         2.9
 IPart= 27 NShTot=          32 NBatch=          11 AvBLen=         2.9
 IPart= 16 NShTot=          35 NBatch=          12 AvBLen=         2.9
 IPart= 14 NShTot=          40 NBatch=          17 AvBLen=         2.4
 IPart=  2 NShTot=          55 NBatch=          28 AvBLen=         2.0
 IPart= 21 NShTot=          35 NBatch=          12 AvBLen=         2.9
 IPart= 12 NShTot=          40 NBatch=          17 AvBLen=         2.4
 IPart=  8 NShTot=          45 NBatch=          20 AvBLen=         2.3
 IPart=  4 NShTot=          48 NBatch=          21 AvBLen=         2.3
 IPart= 19 NShTot=          35 NBatch=          12 AvBLen=         2.9
 IPart=  6 NShTot=          46 NBatch=          21 AvBLen=         2.2
 IPart= 26 NShTot=          32 NBatch=          11 AvBLen=         2.9
 IPart=  1 NShTot=          59 NBatch=          31 AvBLen=         1.9
 IPart= 20 NShTot=          35 NBatch=          12 AvBLen=         2.9
 IPart= 29 NShTot=          31 NBatch=          11 AvBLen=         2.8
 IPart=  5 NShTot=          46 NBatch=          21 AvBLen=         2.2
 IPart= 11 NShTot=          41 NBatch=          17 AvBLen=         2.4
 IPart= 22 NShTot=          34 NBatch=          11 AvBLen=         3.1
 IPart=  7 NShTot=          46 NBatch=          21 AvBLen=         2.2
 IPart=  9 NShTot=          45 NBatch=          20 AvBLen=         2.3
 IPart= 17 NShTot=          35 NBatch=          12 AvBLen=         2.9
 IPart= 24 NShTot=          32 NBatch=          11 AvBLen=         2.9
 IPart= 15 NShTot=          36 NBatch=          13 AvBLen=         2.8
 IPart= 31 NShTot=          29 NBatch=           9 AvBLen=         3.2
 IPart= 13 NShTot=          40 NBatch=          17 AvBLen=         2.4
 PrSmSu:  NxtVal=             33.
 Entering OneElI...
 Calculate potential energy integrals
    NBasis = 155  MinDer = 1  MaxDer = 1
 Requested accuracy = 0.1000D-12
 PrsmSu:  NPrtUS=  32 ThrOK=T IAlg=1 NPAlg=1 LenDen=           0.
 Prism:   IPart=     0 DynPar=F LinDyn=F Incr=           1.
 PRISM was handed    13084232 working-precision words and  1267 shell-pairs
 PRISM was handed    13084232 working-precision words and  1267 shell-pairs
 PRISM was handed    13084232 working-precision words and  1267 shell-pairs
 PRISM was handed    13084232 working-precision words and  1267 shell-pairs
 PRISM was handed    13084232 working-precision words and  1267 shell-pairs
 PRISM was handed    13084232 working-precision words and  1267 shell-pairs
 PRISM was handed    13084232 working-precision words and  1267 shell-pairs
 PRISM was handed    13084232 working-precision words and  1267 shell-pairs
 PRISM was handed    13084232 working-precision words and  1267 shell-pairs
 PRISM was handed    13084232 working-precision words and  1267 shell-pairs
 PRISM was handed    13084232 working-precision words and  1267 shell-pairs
 PRISM was handed    13084232 working-precision words and  1267 shell-pairs
 PRISM was handed    13084232 working-precision words and  1267 shell-pairs
 PRISM was handed    13084232 working-precision words and  1267 shell-pairs
 PRISM was handed    13084232 working-precision words and  1267 shell-pairs
 PRISM was handed    13084232 working-precision words and  1267 shell-pairs
 PRISM was handed    13084232 working-precision words and  1267 shell-pairs
 PRISM was handed    13084232 working-precision words and  1267 shell-pairs
 PRISM was handed    13084232 working-precision words and  1267 shell-pairs
 PRISM was handed    13084232 working-precision words and  1267 shell-pairs
 PRISM was handed    13084232 working-precision words and  1267 shell-pairs
 PRISM was handed    13084232 working-precision words and  1267 shell-pairs
 PRISM was handed    13084232 working-precision words and  1267 shell-pairs
 PRISM was handed    13084232 working-precision words and  1267 shell-pairs
 PRISM was handed    13084232 working-precision words and  1267 shell-pairs
 PRISM was handed    13084232 working-precision words and  1267 shell-pairs
 PRISM was handed    13084232 working-precision words and  1267 shell-pairs
 PRISM was handed    13084232 working-precision words and  1267 shell-pairs
 PRISM was handed    13084232 working-precision words and  1267 shell-pairs
 PRISM was handed    13084232 working-precision words and  1267 shell-pairs
 PRISM was handed    13084232 working-precision words and  1267 shell-pairs
 PRISM was handed    13084232 working-precision words and  1267 shell-pairs
 IPart= 23 NShTot=         165 NBatch=          33 AvBLen=         5.0
 IPart=  0 NShTot=         345 NBatch=          69 AvBLen=         5.0
 IPart= 30 NShTot=         145 NBatch=          29 AvBLen=         5.0
 IPart= 10 NShTot=         205 NBatch=          41 AvBLen=         5.0
 IPart=  2 NShTot=         275 NBatch=          55 AvBLen=         5.0
 IPart= 25 NShTot=         165 NBatch=          33 AvBLen=         5.0
 IPart= 27 NShTot=         160 NBatch=          32 AvBLen=         5.0
 IPart= 21 NShTot=         175 NBatch=          35 AvBLen=         5.0
 IPart= 12 NShTot=         205 NBatch=          41 AvBLen=         5.0
 IPart= 14 NShTot=         185 NBatch=          37 AvBLen=         5.0
 IPart=  5 NShTot=         225 NBatch=          45 AvBLen=         5.0
 IPart= 19 NShTot=         175 NBatch=          35 AvBLen=         5.0
 IPart= 16 NShTot=         175 NBatch=          35 AvBLen=         5.0
 IPart=  8 NShTot=         220 NBatch=          44 AvBLen=         5.0
 IPart= 28 NShTot=         155 NBatch=          31 AvBLen=         5.0
 IPart= 29 NShTot=         155 NBatch=          31 AvBLen=         5.0
 IPart=  1 NShTot=         295 NBatch=          59 AvBLen=         5.0
 IPart= 20 NShTot=         175 NBatch=          35 AvBLen=         5.0
 IPart= 26 NShTot=         165 NBatch=          33 AvBLen=         5.0
 IPart= 18 NShTot=         175 NBatch=          35 AvBLen=         5.0
 IPart=  6 NShTot=         225 NBatch=          45 AvBLen=         5.0
 IPart=  4 NShTot=         245 NBatch=          49 AvBLen=         5.0
 IPart=  3 NShTot=         250 NBatch=          50 AvBLen=         5.0
 IPart= 11 NShTot=         205 NBatch=          41 AvBLen=         5.0
 IPart=  7 NShTot=         225 NBatch=          45 AvBLen=         5.0
 IPart= 22 NShTot=         165 NBatch=          33 AvBLen=         5.0
 IPart=  9 NShTot=         220 NBatch=          44 AvBLen=         5.0
 IPart= 17 NShTot=         175 NBatch=          35 AvBLen=         5.0
 IPart= 24 NShTot=         165 NBatch=          33 AvBLen=         5.0
 IPart= 15 NShTot=         175 NBatch=          35 AvBLen=         5.0
 IPart= 31 NShTot=         145 NBatch=          29 AvBLen=         5.0
 IPart= 13 NShTot=         200 NBatch=          40 AvBLen=         5.0
 PrSmSu:  NxtVal=             33.
 l701 out
 I=    0 X=   5.569398536037D-02 Y=   1.873544929939D-01 Z=   3.405659886285D-02
 I=    1 X=  -2.896996156924D-01 Y=  -9.752980019713D-01 Z=  -1.770780983322D-01
 I=    2 X=   1.260273154653D-02 Y=   4.255252410653D-02 Z=   2.348593036758D+00
 I=    3 X=   2.096001667661D+00 Y=   4.261316899712D-02 Z=  -1.059137202847D+00
 I=    4 X=  -1.732547692356D+00 Y=   1.180730651406D+00 Z=  -1.059564197268D+00
 I=    5 X=  -8.635709115913D-02 Y=  -2.905983425381D-01 Z=  -5.281353831126D-02
 ICntrl=      2127.
 Calling FoFJK, ICntrl=      2127 FMM=F ISym2X=0 I1Cent= 0 IOpClX= 1 NMat=1 NMatS=1 NMatT=0.
 FoFJK:  IHMeth= 1 ICntrl=    2127 DoSepK=T KAlg= 0 I1Cent=   0 FoldK=F
 IRaf=         1 NMat=   1 IRICut=       1 DoRegI=T DoRafI=F ISym2E= 0.
 FoFCou: FMM=F IPFlag=           0 FMFlag=      100000 FMFlg1=         800
         NFxFlg=           0 DoJE=F BraDBF=F KetDBF=F FulRan=T
         wScrn=  0.000000 ICntrl=    2527 IOpCl=  0 I1Cent=           0 NGrid=           0
         NMat0=    1 NMatS0=      1 NMatT0=    0 NMatD0=    1 NMtDS0=    0 NMtDT0=    0
 Symmetry not used in FoFCou.
 FoFCou:  KetSym=F NOpSet=  1 NOpAb=1 NOp=  1.
 FoFCou:  CnvScl= 1.00D+00 Thresh= 1.00D-10 IAcrcy=      10.
 PrismS was handed   419299016 working-precision words and  1275 shell-pairs
 FoFCou: LinMIO=F DoNuc=F BraDBF=F KetDBF=F HaveP=T PDBF=F HaveZ=T HaveW=F
         NIJTC =      10 NIJTAt=       0 NIJTCD=       0 NIJTT =      10
         IJTBeg=       1 IJTEnd=      10 KLTBeg=       1 KLTEnd=      10
         IPTBeg=       1 IPTEnd=      10 IPTBCv=       1 IPTECv=      10
         IZTBeg=       1 IZTEnd=      10 IZTBCv=       1 IZTECv=      10
         IWTBeg=      11 IWTEnd=      10 IWTBCv=      11 IWTECv=      10
         INTBeg=       1 INTEnd=       0 IFTBCv=       1 IFTECv=      10
 NCel replicated for PrismC:     1
 CoulSu:  IncDef=  1024 NBBP=         813450 NTPThr=   100 NPartT=   32 Incr=         254 LDynOK=F.
 CoulSu:  NPrtUS=  32 ThrOK=T IAlg=1 NPAlg=1 LenDen=           0 LWGrdD=           0 DoCopy=F.
 Enter PrismC: JobTyp=21 DoJE=F Cont=F.
 PrismC:  IPart=     0 DynPar=T LinDyn=F Incr=         254 UseFst=F UseS4=T IGathr=2.
 Enter PrismC: JobTyp=21 DoJE=F Cont=F.
 Enter PrismC: JobTyp=21 DoJE=F Cont=F.
 Enter PrismC: JobTyp=21 DoJE=F Cont=F.
 Enter PrismC: JobTyp=21 DoJE=F Cont=F.
 Enter PrismC: JobTyp=21 DoJE=F Cont=F.
 Enter PrismC: JobTyp=21 DoJE=F Cont=F.
 Enter PrismC: JobTyp=21 DoJE=F Cont=F.
 PrismC was handed    13083232 working-precision words and  1275 shell-pairs
 Enter PrismC: JobTyp=21 DoJE=F Cont=F.
 Enter PrismC: JobTyp=21 DoJE=F Cont=F.
 Enter PrismC: JobTyp=21 DoJE=F Cont=F.
 Enter PrismC: JobTyp=21 DoJE=F Cont=F.
 PrismC was handed    13083232 working-precision words and  1275 shell-pairs
 Enter PrismC: JobTyp=21 DoJE=F Cont=F.
 PrismC was handed    13083232 working-precision words and  1275 shell-pairs
 Enter PrismC: JobTyp=21 DoJE=F Cont=F.
 PrismC was handed    13083232 working-precision words and  1275 shell-pairs
 Enter PrismC: JobTyp=21 DoJE=F Cont=F.
 PrismC was handed    13083232 working-precision words and  1275 shell-pairs
 Enter PrismC: JobTyp=21 DoJE=F Cont=F.
 Enter PrismC: JobTyp=21 DoJE=F Cont=F.
 PrismC was handed    13083232 working-precision words and  1275 shell-pairs
 Enter PrismC: JobTyp=21 DoJE=F Cont=F.
 PrismC was handed    13083232 working-precision words and  1275 shell-pairs
 Enter PrismC: JobTyp=21 DoJE=F Cont=F.
 Enter PrismC: JobTyp=21 DoJE=F Cont=F.
 PrismC was handed    13083232 working-precision words and  1275 shell-pairs
 Enter PrismC: JobTyp=21 DoJE=F Cont=F.
 PrismC was handed    13083232 working-precision words and  1275 shell-pairs
 Enter PrismC: JobTyp=21 DoJE=F Cont=F.
 PrismC was handed    13083232 working-precision words and  1275 shell-pairs
 Enter PrismC: JobTyp=21 DoJE=F Cont=F.
 PrismC was handed    13083232 working-precision words and  1275 shell-pairs
 Enter PrismC: JobTyp=21 DoJE=F Cont=F.
 PrismC was handed    13083232 working-precision words and  1275 shell-pairs
 Enter PrismC: JobTyp=21 DoJE=F Cont=F.
 PrismC was handed    13083232 working-precision words and  1275 shell-pairs
 Enter PrismC: JobTyp=21 DoJE=F Cont=F.
 PrismC was handed    13083232 working-precision words and  1275 shell-pairs
 Enter PrismC: JobTyp=21 DoJE=F Cont=F.
 PrismC was handed    13083232 working-precision words and  1275 shell-pairs
 Enter PrismC: JobTyp=21 DoJE=F Cont=F.
 PrismC was handed    13083232 working-precision words and  1275 shell-pairs
 Enter PrismC: JobTyp=21 DoJE=F Cont=F.
 PrismC was handed    13083232 working-precision words and  1275 shell-pairs
 Enter PrismC: JobTyp=21 DoJE=F Cont=F.
 PrismC was handed    13083232 working-precision words and  1275 shell-pairs
 Enter PrismC: JobTyp=21 DoJE=F Cont=F.
 PrismC was handed    13083232 working-precision words and  1275 shell-pairs
 PrismC was handed    13083232 working-precision words and  1275 shell-pairs
 PrismC was handed    13083232 working-precision words and  1275 shell-pairs
 PrismC was handed    13083232 working-precision words and  1275 shell-pairs
 PrismC was handed    13083232 working-precision words and  1275 shell-pairs
 PrismC was handed    13083232 working-precision words and  1275 shell-pairs
 PrismC was handed    13083232 working-precision words and  1275 shell-pairs
 PrismC was handed    13083232 working-precision words and  1275 shell-pairs
 PrismC was handed    13083232 working-precision words and  1275 shell-pairs
 PrismC was handed    13083232 working-precision words and  1275 shell-pairs
 PrismC was handed    13083232 working-precision words and  1275 shell-pairs
 PrismC was handed    13083232 working-precision words and  1275 shell-pairs
 Enter PrismC: JobTyp=21 DoJE=F Cont=F.
 PrismC was handed    13083232 working-precision words and  1275 shell-pairs
 PrismC was handed    13083232 working-precision words and  1275 shell-pairs
 IPart= 24 NShTot=       25212 NShNF=       25212 NShFF=           0 NBatch=         231 AvBLen=       109.1
 IPart= 21 NShTot=       23032 NShNF=       23032 NShFF=           0 NBatch=         243 AvBLen=        94.8
 IPart= 22 NShTot=       23671 NShNF=       23671 NShFF=           0 NBatch=         248 AvBLen=        95.4
 IPart=  5 NShTot=       19531 NShNF=       19531 NShFF=           0 NBatch=         248 AvBLen=        78.8
 IPart= 29 NShTot=       23360 NShNF=       23360 NShFF=           0 NBatch=         240 AvBLen=        97.3
 IPart= 15 NShTot=       22533 NShNF=       22533 NShFF=           0 NBatch=         246 AvBLen=        91.6
 IPart= 10 NShTot=       21767 NShNF=       21767 NShFF=           0 NBatch=         227 AvBLen=        95.9
 IPart= 28 NShTot=       24228 NShNF=       24228 NShFF=           0 NBatch=         247 AvBLen=        98.1
 IPart= 17 NShTot=       21667 NShNF=       21667 NShFF=           0 NBatch=         259 AvBLen=        83.7
 IPart= 14 NShTot=       22639 NShNF=       22639 NShFF=           0 NBatch=         237 AvBLen=        95.5
 IPart=  1 NShTot=       23715 NShNF=       23715 NShFF=           0 NBatch=         242 AvBLen=        98.0
 IPart=  8 NShTot=       23005 NShNF=       23005 NShFF=           0 NBatch=         226 AvBLen=       101.8
 IPart=  3 NShTot=       22903 NShNF=       22903 NShFF=           0 NBatch=         252 AvBLen=        90.9
 IPart= 27 NShTot=       21823 NShNF=       21823 NShFF=           0 NBatch=         242 AvBLen=        90.2
 IPart= 13 NShTot=       24292 NShNF=       24292 NShFF=           0 NBatch=         251 AvBLen=        96.8
 IPart= 30 NShTot=       25808 NShNF=       25808 NShFF=           0 NBatch=         247 AvBLen=       104.5
 IPart= 23 NShTot=       22916 NShNF=       22916 NShFF=           0 NBatch=         246 AvBLen=        93.2
 IPart=  6 NShTot=       25848 NShNF=       25848 NShFF=           0 NBatch=         226 AvBLen=       114.4
 IPart= 11 NShTot=       24447 NShNF=       24447 NShFF=           0 NBatch=         239 AvBLen=       102.3
 IPart= 16 NShTot=       22746 NShNF=       22746 NShFF=           0 NBatch=         225 AvBLen=       101.1
 IPart= 31 NShTot=       25140 NShNF=       25140 NShFF=           0 NBatch=         245 AvBLen=       102.6
 IPart=  2 NShTot=       26986 NShNF=       26986 NShFF=           0 NBatch=         245 AvBLen=       110.1
 IPart= 26 NShTot=       24870 NShNF=       24870 NShFF=           0 NBatch=         257 AvBLen=        96.8
 IPart= 20 NShTot=       23969 NShNF=       23969 NShFF=           0 NBatch=         247 AvBLen=        97.0
 IPart= 19 NShTot=       22573 NShNF=       22573 NShFF=           0 NBatch=         177 AvBLen=       127.5
 IPart=  0 NShTot=       24216 NShNF=       24216 NShFF=           0 NBatch=         231 AvBLen=       104.8
 IPart=  9 NShTot=       24822 NShNF=       24822 NShFF=           0 NBatch=         241 AvBLen=       103.0
 IPart=  4 NShTot=       24875 NShNF=       24875 NShFF=           0 NBatch=         249 AvBLen=        99.9
 IPart= 12 NShTot=       24415 NShNF=       24415 NShFF=           0 NBatch=         250 AvBLen=        97.7
 IPart=  7 NShTot=       23329 NShNF=       23329 NShFF=           0 NBatch=         254 AvBLen=        91.8
 IPart= 25 NShTot=       26627 NShNF=       26627 NShFF=           0 NBatch=         210 AvBLen=       126.8
 IPart= 18 NShTot=       27396 NShNF=       27396 NShFF=           0 NBatch=         253 AvBLen=       108.3
 CoulSu:  NxtVal=         899923.
 FoFCou: FMM=F IPFlag=           0 FMFlag=      100000 FMFlg1=         800
         NFxFlg=           0 DoJE=F BraDBF=F KetDBF=F FulRan=T
         wScrn=  0.000000 ICntrl=    2127 IOpCl=  1 I1Cent=           0 NGrid=           0
         NMat0=    1 NMatS0=      0 NMatT0=    1 NMatD0=    1 NMtDS0=    0 NMtDT0=    0
         CW=    0.222036    0.777964
         WU=    0.000000   12.500000
 Symmetry not used in FoFCou.
 FoFCou:  KetSym=F NOpSet=  1 NOpAb=1 NOp=  1.
 FoFCou:  CnvScl= 1.00D+00 Thresh= 1.00D-10 IAcrcy=      10.
 PrismS was handed   419297776 working-precision words and  1275 shell-pairs
 FoFCou: LinMIO=F DoNuc=F BraDBF=F KetDBF=F HaveP=T PDBF=F HaveZ=T HaveW=F
         NIJTC =      10 NIJTAt=       0 NIJTCD=       0 NIJTT =      10
         IJTBeg=       1 IJTEnd=      10 KLTBeg=       1 KLTEnd=      10
         IPTBeg=       1 IPTEnd=      10 IPTBCv=       1 IPTECv=      10
         IZTBeg=       1 IZTEnd=      10 IZTBCv=       1 IZTECv=      10
         IWTBeg=      11 IWTEnd=      10 IWTBCv=      11 IWTECv=      10
         INTBeg=       1 INTEnd=       0 IFTBCv=       1 IFTECv=      10
 NCel replicated for PrismC:     1
 CoulSu:  IncDef=  1024 NBBP=         813450 NTPThr=   100 NPartT=   32 Incr=         254 LDynOK=F.
 CoulSu:  NPrtUS=  32 ThrOK=T IAlg=1 NPAlg=1 LenDen=           0 LWGrdD=           0 DoCopy=F.
 Enter PrismC: JobTyp=21 DoJE=F Cont=F.
 Linear combination for Coulomb/exchange, wScrn=  0.000000
 Enter PrismC: JobTyp=21 DoJE=F Cont=F.
 Enter PrismC: JobTyp=21 DoJE=F Cont=F.
 Enter PrismC: JobTyp=21 DoJE=F Cont=F.
 Linear combination for Coulomb/exchange, wScrn=  0.000000
 CW=    0.222036    0.777964
 WU=    0.000000   12.500000
 Enter PrismC: JobTyp=21 DoJE=F Cont=F.
 Linear combination for Coulomb/exchange, wScrn=  0.000000
 CW=    0.222036    0.777964
 WU=    0.000000   12.500000
 Enter PrismC: JobTyp=21 DoJE=F Cont=F.
 Linear combination for Coulomb/exchange, wScrn=  0.000000
 CW=    0.222036    0.777964
 WU=    0.000000   12.500000
 Enter PrismC: JobTyp=21 DoJE=F Cont=F.
 Linear combination for Coulomb/exchange, wScrn=  0.000000
 CW=    0.222036    0.777964
 WU=    0.000000   12.500000
 Enter PrismC: JobTyp=21 DoJE=F Cont=F.
 Linear combination for Coulomb/exchange, wScrn=  0.000000
 CW=    0.222036    0.777964
 WU=    0.000000   12.500000
 Enter PrismC: JobTyp=21 DoJE=F Cont=F.
 Linear combination for Coulomb/exchange, wScrn=  0.000000
 CW=    0.222036    0.777964
 WU=    0.000000   12.500000
 Enter PrismC: JobTyp=21 DoJE=F Cont=F.
 Linear combination for Coulomb/exchange, wScrn=  0.000000
 CW=    0.222036    0.777964
 WU=    0.000000   12.500000
 Enter PrismC: JobTyp=21 DoJE=F Cont=F.
 Linear combination for Coulomb/exchange, wScrn=  0.000000
 CW=    0.222036    0.777964
 WU=    0.000000   12.500000
 Enter PrismC: JobTyp=21 DoJE=F Cont=F.
 Linear combination for Coulomb/exchange, wScrn=  0.000000
 CW=    0.222036    0.777964
 WU=    0.000000   12.500000
 Enter PrismC: JobTyp=21 DoJE=F Cont=F.
 Linear combination for Coulomb/exchange, wScrn=  0.000000
 CW=    0.222036    0.777964
 WU=    0.000000   12.500000
 Linear combination for Coulomb/exchange, wScrn=  0.000000
 CW=    0.222036    0.777964
 WU=    0.000000   12.500000
 PrismC was handed    13083194 working-precision words and  1275 shell-pairs
 Enter PrismC: JobTyp=21 DoJE=F Cont=F.
 Linear combination for Coulomb/exchange, wScrn=  0.000000
 CW=    0.222036    0.777964
 WU=    0.000000   12.500000
 PrismC was handed    13083194 working-precision words and  1275 shell-pairs
 Enter PrismC: JobTyp=21 DoJE=F Cont=F.
 Linear combination for Coulomb/exchange, wScrn=  0.000000
 CW=    0.222036    0.777964
 WU=    0.000000   12.500000
 Enter PrismC: JobTyp=21 DoJE=F Cont=F.
 Linear combination for Coulomb/exchange, wScrn=  0.000000
 CW=    0.222036    0.777964
 WU=    0.000000   12.500000
 Enter PrismC: JobTyp=21 DoJE=F Cont=F.
 Linear combination for Coulomb/exchange, wScrn=  0.000000
 CW=    0.222036    0.777964
 WU=    0.000000   12.500000
 Linear combination for Coulomb/exchange, wScrn=  0.000000
 CW=    0.222036    0.777964
 WU=    0.000000   12.500000
 Enter PrismC: JobTyp=21 DoJE=F Cont=F.
 Linear combination for Coulomb/exchange, wScrn=  0.000000
 CW=    0.222036    0.777964
 WU=    0.000000   12.500000
 Enter PrismC: JobTyp=21 DoJE=F Cont=F.
 Linear combination for Coulomb/exchange, wScrn=  0.000000
 CW=    0.222036    0.777964
 WU=    0.000000   12.500000
 Enter PrismC: JobTyp=21 DoJE=F Cont=F.
 Linear combination for Coulomb/exchange, wScrn=  0.000000
 CW=    0.222036    0.777964
 WU=    0.000000   12.500000
 Enter PrismC: JobTyp=21 DoJE=F Cont=F.
 Linear combination for Coulomb/exchange, wScrn=  0.000000
 CW=    0.222036    0.777964
 WU=    0.000000   12.500000
 PrismC was handed    13083194 working-precision words and  1275 shell-pairs
 Enter PrismC: JobTyp=21 DoJE=F Cont=F.
 Linear combination for Coulomb/exchange, wScrn=  0.000000
 CW=    0.222036    0.777964
 WU=    0.000000   12.500000
 PrismC was handed    13083194 working-precision words and  1275 shell-pairs
 PrismC was handed    13083194 working-precision words and  1275 shell-pairs
 Enter PrismC: JobTyp=21 DoJE=F Cont=F.
 Linear combination for Coulomb/exchange, wScrn=  0.000000
 CW=    0.222036    0.777964
 WU=    0.000000   12.500000
 CW=    0.222036    0.777964
 WU=    0.000000   12.500000
 PrismC was handed    13083194 working-precision words and  1275 shell-pairs
 Enter PrismC: JobTyp=21 DoJE=F Cont=F.
 Linear combination for Coulomb/exchange, wScrn=  0.000000
 CW=    0.222036    0.777964
 WU=    0.000000   12.500000
 Enter PrismC: JobTyp=21 DoJE=F Cont=F.
 Linear combination for Coulomb/exchange, wScrn=  0.000000
 CW=    0.222036    0.777964
 WU=    0.000000   12.500000
 Enter PrismC: JobTyp=21 DoJE=F Cont=F.
 Linear combination for Coulomb/exchange, wScrn=  0.000000
 CW=    0.222036    0.777964
 WU=    0.000000   12.500000
 PrismC was handed    13083194 working-precision words and  1275 shell-pairs
 Enter PrismC: JobTyp=21 DoJE=F Cont=F.
 Linear combination for Coulomb/exchange, wScrn=  0.000000
 CW=    0.222036    0.777964
 WU=    0.000000   12.500000
 Enter PrismC: JobTyp=21 DoJE=F Cont=F.
 Linear combination for Coulomb/exchange, wScrn=  0.000000
 CW=    0.222036    0.777964
 WU=    0.000000   12.500000
 Enter PrismC: JobTyp=21 DoJE=F Cont=F.
 Linear combination for Coulomb/exchange, wScrn=  0.000000
 CW=    0.222036    0.777964
 WU=    0.000000   12.500000
 PrismC:  IPart=     0 DynPar=T LinDyn=F Incr=         254 UseFst=F UseS4=T IGathr=2.
 PrismC was handed    13083194 working-precision words and  1275 shell-pairs
 PrismC was handed    13083194 working-precision words and  1275 shell-pairs
 PrismC was handed    13083194 working-precision words and  1275 shell-pairs
 PrismC was handed    13083194 working-precision words and  1275 shell-pairs
 PrismC was handed    13083194 working-precision words and  1275 shell-pairs
 PrismC was handed    13083194 working-precision words and  1275 shell-pairs
 PrismC was handed    13083194 working-precision words and  1275 shell-pairs
 PrismC was handed    13083194 working-precision words and  1275 shell-pairs
 PrismC was handed    13083194 working-precision words and  1275 shell-pairs
 Enter PrismC: JobTyp=21 DoJE=F Cont=F.
 Linear combination for Coulomb/exchange, wScrn=  0.000000
 CW=    0.222036    0.777964
 WU=    0.000000   12.500000
 PrismC was handed    13083194 working-precision words and  1275 shell-pairs
 PrismC was handed    13083194 working-precision words and  1275 shell-pairs
 PrismC was handed    13083194 working-precision words and  1275 shell-pairs
 PrismC was handed    13083194 working-precision words and  1275 shell-pairs
 Enter PrismC: JobTyp=21 DoJE=F Cont=F.
 PrismC was handed    13083194 working-precision words and  1275 shell-pairs
 PrismC was handed    13083194 working-precision words and  1275 shell-pairs
 PrismC was handed    13083194 working-precision words and  1275 shell-pairs
 PrismC was handed    13083194 working-precision words and  1275 shell-pairs
 PrismC was handed    13083194 working-precision words and  1275 shell-pairs
 PrismC was handed    13083194 working-precision words and  1275 shell-pairs
 PrismC was handed    13083194 working-precision words and  1275 shell-pairs
 PrismC was handed    13083194 working-precision words and  1275 shell-pairs
 PrismC was handed    13083194 working-precision words and  1275 shell-pairs
 Enter PrismC: JobTyp=21 DoJE=F Cont=F.
 Linear combination for Coulomb/exchange, wScrn=  0.000000
 CW=    0.222036    0.777964
 WU=    0.000000   12.500000
 Linear combination for Coulomb/exchange, wScrn=  0.000000
 CW=    0.222036    0.777964
 WU=    0.000000   12.500000
 PrismC was handed    13083194 working-precision words and  1275 shell-pairs
 PrismC was handed    13083194 working-precision words and  1275 shell-pairs
 PrismC was handed    13083194 working-precision words and  1275 shell-pairs
 IPart= 17 NShTot=       23505 NShNF=       23505 NShFF=           0 NBatch=         292 AvBLen=        80.5
 IPart=  7 NShTot=       20710 NShNF=       20710 NShFF=           0 NBatch=         266 AvBLen=        77.9
 IPart= 31 NShTot=       21741 NShNF=       21741 NShFF=           0 NBatch=         233 AvBLen=        93.3
 IPart=  3 NShTot=       22552 NShNF=       22552 NShFF=           0 NBatch=         310 AvBLen=        72.7
 IPart= 23 NShTot=       25266 NShNF=       25266 NShFF=           0 NBatch=         316 AvBLen=        80.0
 IPart= 11 NShTot=       23652 NShNF=       23652 NShFF=           0 NBatch=         247 AvBLen=        95.8
 IPart= 27 NShTot=       24821 NShNF=       24821 NShFF=           0 NBatch=         256 AvBLen=        97.0
 IPart= 22 NShTot=       23121 NShNF=       23121 NShFF=           0 NBatch=         312 AvBLen=        74.1
 IPart=  0 NShTot=       24518 NShNF=       24518 NShFF=           0 NBatch=         265 AvBLen=        92.5
 IPart= 21 NShTot=       23376 NShNF=       23376 NShFF=           0 NBatch=         299 AvBLen=        78.2
 IPart=  5 NShTot=       26009 NShNF=       26009 NShFF=           0 NBatch=         320 AvBLen=        81.3
 IPart= 29 NShTot=       21663 NShNF=       21663 NShFF=           0 NBatch=         292 AvBLen=        74.2
 IPart= 12 NShTot=       25986 NShNF=       25986 NShFF=           0 NBatch=         268 AvBLen=        97.0
 IPart= 15 NShTot=       28803 NShNF=       28803 NShFF=           0 NBatch=         258 AvBLen=       111.6
 IPart= 19 NShTot=       23147 NShNF=       23147 NShFF=           0 NBatch=         261 AvBLen=        88.7
 IPart=  4 NShTot=       22772 NShNF=       22772 NShFF=           0 NBatch=         309 AvBLen=        73.7
 IPart= 30 NShTot=       24444 NShNF=       24444 NShFF=           0 NBatch=         308 AvBLen=        79.4
 IPart= 25 NShTot=       26521 NShNF=       26521 NShFF=           0 NBatch=         214 AvBLen=       123.9
 IPart= 28 NShTot=       25127 NShNF=       25127 NShFF=           0 NBatch=         268 AvBLen=        93.8
 IPart= 16 NShTot=       22014 NShNF=       22014 NShFF=           0 NBatch=         246 AvBLen=        89.5
 IPart=  6 NShTot=       22388 NShNF=       22388 NShFF=           0 NBatch=         248 AvBLen=        90.3
 IPart= 20 NShTot=       21471 NShNF=       21471 NShFF=           0 NBatch=         319 AvBLen=        67.3
 IPart=  2 NShTot=       24436 NShNF=       24436 NShFF=           0 NBatch=         265 AvBLen=        92.2
 IPart=  1 NShTot=       24651 NShNF=       24651 NShFF=           0 NBatch=         326 AvBLen=        75.6
 IPart= 18 NShTot=       22777 NShNF=       22777 NShFF=           0 NBatch=         274 AvBLen=        83.1
 IPart= 13 NShTot=       23339 NShNF=       23339 NShFF=           0 NBatch=         326 AvBLen=        71.6
 IPart= 10 NShTot=       24102 NShNF=       24102 NShFF=           0 NBatch=         311 AvBLen=        77.5
 IPart= 26 NShTot=       24355 NShNF=       24355 NShFF=           0 NBatch=         264 AvBLen=        92.3
 IPart= 14 NShTot=       25690 NShNF=       25690 NShFF=           0 NBatch=         320 AvBLen=        80.3
 IPart= 24 NShTot=       23346 NShNF=       23346 NShFF=           0 NBatch=         314 AvBLen=        74.4
 IPart=  8 NShTot=       22802 NShNF=       22802 NShFF=           0 NBatch=         305 AvBLen=        74.8
 IPart=  9 NShTot=       26160 NShNF=       26160 NShFF=           0 NBatch=         327 AvBLen=        80.0
 CoulSu:  NxtVal=         899923.
 ReadGW:  IGet=0 IStart=           1 Next=           1 LGW=           0.
 Remaining memory in FofDFT      399.95 Mw
 CkSvGd:  ISavGI=        -1 IRadAn=       5 IRASav=       5 ISavGd=        -1.
 CalDSu:  NPrtUS=  32 ThrOK=T IAlg=1 NPAlg=2 DoDPD=T LenP=       12090 LenD1P=             0.
 IPart=  0 IRanGd=          0 ScrnBf=T ScrnGd=T RCrit=4.00D+00 DoMicB=T.
 IPart=  4         2533 of         2538 points in       2 batches and        7 microbatches, Max-NSigAt=       5 Max-NSgAt2=       5
 IPart=  5         3185 of         3568 points in       4 batches and       29 microbatches, Max-NSigAt=       5 Max-NSgAt2=       5
 IPart= 28         3835 of         4530 points in       7 batches and       47 microbatches, Max-NSigAt=       5 Max-NSgAt2=       5
 IPart=  3         2838 of         2838 points in       2 batches and        6 microbatches, Max-NSigAt=       5 Max-NSgAt2=       5
 IPart= 10         2587 of         2718 points in       2 batches and       22 microbatches, Max-NSigAt=       5 Max-NSgAt2=       5
 IPart=  1         3201 of         3568 points in       4 batches and       21 microbatches, Max-NSigAt=       5 Max-NSgAt2=       5
 IPart=  7         2699 of         2732 points in       2 batches and        9 microbatches, Max-NSigAt=       5 Max-NSgAt2=       5
 IPart= 12         2545 of         2556 points in       2 batches and        6 microbatches, Max-NSigAt=       5 Max-NSgAt2=       5
 IPart= 27         3503 of         3954 points in       5 batches and       25 microbatches, Max-NSigAt=       5 Max-NSgAt2=       5
 IPart= 30         2793 of         2992 points in       3 batches and       26 microbatches, Max-NSigAt=       5 Max-NSgAt2=       5
 IPart= 11         3149 of         3246 points in       3 batches and       20 microbatches, Max-NSigAt=       5 Max-NSgAt2=       5
 IPart=  9         3128 of         3568 points in       4 batches and       26 microbatches, Max-NSigAt=       5 Max-NSgAt2=       5
 IPart=  6         3275 of         3568 points in       4 batches and       31 microbatches, Max-NSigAt=       5 Max-NSgAt2=       5
 IPart= 16         2948 of         3034 points in       3 batches and        8 microbatches, Max-NSigAt=       5 Max-NSgAt2=       5
 IPart= 22         3775 of         4200 points in       5 batches and       27 microbatches, Max-NSigAt=       5 Max-NSgAt2=       5
 IPart= 31         3273 of         3568 points in       4 batches and       36 microbatches, Max-NSigAt=       5 Max-NSgAt2=       5
 IPart= 18         2931 of         2988 points in       3 batches and       19 microbatches, Max-NSigAt=       5 Max-NSgAt2=       5
 IPart= 15         3811 of         4200 points in       5 batches and       19 microbatches, Max-NSigAt=       5 Max-NSgAt2=       5
 IPart= 26         4050 of         4530 points in       6 batches and       38 microbatches, Max-NSigAt=       5 Max-NSgAt2=       5
 IPart= 20         3450 of         3624 points in       4 batches and       26 microbatches, Max-NSigAt=       5 Max-NSgAt2=       5
 IPart= 13         3980 of         4144 points in       4 batches and       10 microbatches, Max-NSigAt=       5 Max-NSgAt2=       5
 IPart= 25         4010 of         4368 points in       5 batches and       26 microbatches, Max-NSigAt=       5 Max-NSgAt2=       5
 IPart=  0         3705 of         3874 points in       4 batches and       24 microbatches, Max-NSigAt=       5 Max-NSgAt2=       5
 IPart= 24         3430 of         3540 points in       3 batches and       12 microbatches, Max-NSigAt=       5 Max-NSgAt2=       5
 IPart= 19         3453 of         3540 points in       3 batches and       11 microbatches, Max-NSigAt=       5 Max-NSgAt2=       5
 IPart=  8         3795 of         4172 points in       5 batches and       46 microbatches, Max-NSigAt=       5 Max-NSgAt2=       5
 IPart= 17         4343 of         4516 points in       4 batches and       11 microbatches, Max-NSigAt=       5 Max-NSgAt2=       5
 IPart= 23         3676 of         3822 points in       3 batches and       11 microbatches, Max-NSigAt=       5 Max-NSgAt2=       5
 IPart= 14         3777 of         4066 points in       5 batches and       32 microbatches, Max-NSigAt=       5 Max-NSgAt2=       5
 IPart= 29         3862 of         4144 points in       4 batches and       25 microbatches, Max-NSigAt=       5 Max-NSgAt2=       5
 IPart=  2         3504 of         3524 points in       3 batches and       11 microbatches, Max-NSigAt=       5 Max-NSgAt2=       5
 IPart= 21         3471 of         3540 points in       3 batches and       13 microbatches, Max-NSigAt=       5 Max-NSgAt2=       5
 Forces at end of L703
 I=    0 X=   5.569398536037D-02 Y=   1.873544929939D-01 Z=   3.405659886285D-02
 I=    1 X=  -2.386646625423D-03 Y=  -8.016187595675D-03 Z=  -1.461442179289D-03
 I=    2 X=   1.251877985934D-03 Y=   4.187430052048D-03 Z=  -1.301134690634D-03
 I=    3 X=  -5.927962789145D-04 Y=   4.195043875976D-03 Z=   1.707750103965D-03
 I=    4 X=   2.783932160016D-03 Y=   3.187908763404D-03 Z=   1.700377369661D-03
 I=    5 X=  -1.056367241615D-03 Y=  -3.554195095757D-03 Z=  -6.455506037059D-04
 FrcOut:
 IF    =    36 IFX   =    51 IFXYZ =    66
 IFFX  =    81 IFFFX =   201 IFLen =    15
 IFFLen=   120 IFFFLn=     0 IEDerv=   201
 LEDerv=   773 IFroze=  1163 ICStrt= 39591
 FCEst1:  Generated internal coordinate force constants:
                1             2             3             4             5 
      1  0.656075D+00
      2 -0.121701D+00  0.282866D+00
      3 -0.220979D-01 -0.744140D-01  0.678744D+00
      4 -0.100002D+00  0.107895D-01 -0.235021D-02  0.691141D-01
      5  0.107896D-01 -0.669357D-01 -0.789368D-02 -0.584709D-02  0.511980D-01
      6  0.000000D+00  0.000000D+00 -0.361033D+00  0.000000D+00  0.000000D+00
      7 -0.307763D+00  0.491578D-02  0.106382D+00  0.177371D-01  0.571041D-03
      8 -0.211031D-02 -0.669307D-01  0.131980D-01  0.125292D-02  0.436108D-02
      9  0.104035D+00  0.960036D-02 -0.153272D+00  0.346399D-01  0.111522D-02
     10 -0.237157D+00  0.106104D+00 -0.819128D-01  0.129141D-01 -0.614944D-02
     11  0.113131D+00 -0.137509D+00  0.691765D-01 -0.683121D-02  0.918882D-02
     12 -0.819153D-01  0.648807D-01 -0.153307D+00 -0.284035D-01  0.198559D-01
     13 -0.111521D-01 -0.108305D-03 -0.210314D-04  0.237058D-03  0.635880D-03
     14 -0.109790D-03 -0.114903D-01 -0.667956D-04  0.635869D-03  0.218786D-02
     15 -0.213900D-04 -0.670940D-04 -0.111328D-01 -0.388618D-02 -0.130774D-01
                6             7             8             9            10 
      6  0.361033D+00
      7  0.000000D+00  0.300395D+00
      8  0.000000D+00 -0.266399D-02  0.511957D-01
      9  0.000000D+00 -0.118424D+00 -0.520270D-02  0.129754D+00
     10  0.000000D+00 -0.884147D-02  0.148718D-01 -0.172671D-01  0.228444D+00
     11  0.000000D+00 -0.311255D-02  0.918709D-02 -0.607871D-02 -0.112937D+00
     12  0.000000D+00  0.111386D-01 -0.145214D-01  0.217534D-01  0.963714D-01
     13  0.000000D+00 -0.152756D-02 -0.113505D-01 -0.298328D-02  0.464071D-02
     14  0.000000D+00  0.289722D-03  0.218685D-02  0.565819D-03 -0.188950D-02
     15  0.000000D+00  0.903519D-03  0.652608D-02  0.176454D-02  0.280849D-02
               11            12            13            14            15 
     11  0.123114D+00
     12 -0.690596D-01  0.129787D+00
     13  0.974920D-02  0.280874D-02  0.780193D-02
     14 -0.398069D-02 -0.115558D-02  0.107370D-02  0.110963D-01
     15  0.596188D-02  0.176573D-02  0.195567D-03  0.656557D-03  0.760251D-02
 Quadrupole    = 3.37598702D-01-7.40682520D-01 4.03083818D-01
                -3.51531663D-01-6.38005679D-02-2.15021952D-01
 -------------------------------------------------------------------
 Center     Atomic                   Forces (Hartrees/Bohr)
 Number     Number              X              Y              Z
 -------------------------------------------------------------------
      1        6           0.002386647    0.008016188    0.001461442
      2        1          -0.001251878   -0.004187430    0.001301135
      3        1           0.000592796   -0.004195044   -0.001707750
      4        1          -0.002783932   -0.003187909   -0.001700377
      5        1           0.001056367    0.003554195    0.000645551
 -------------------------------------------------------------------
 Cartesian Forces:  Max     0.008016188 RMS     0.003148771
 From PutF, contents of force:
   1    0.1301134691D-02
   2    0.1305983691D-02
   3    0.1300622902D-02
   4    0.2548779561D-02
   5    0.2537302077D-02
   6   -0.7606532895D-02
   7   -0.9920468170D-06
   8    0.2424084903D-05
   9   -0.3763635197D-02
 -----------------------------------------------------------------------------------------------
                       Internal Coordinate Forces (Hartree/Bohr or radian)
  Cent   Atom   N1       Length/X         N2         Alpha/Y        N3         Beta/Z          J
 -----------------------------------------------------------------------------------------------
      1  C 
      2  H        1   0.001301(     1)
      3  H        1   0.001306(     2)      2   0.002549(     5)
      4  H        1   0.001301(     3)      2   0.002537(     6)      3  -0.007607(     8)     0
      5  H        1  -0.003764(     4)      2   0.000002(     7)      3  -0.000001(     9)     0
 -----------------------------------------------------------------------------------------------
 Internal  Forces:  Max     0.007606533 RMS     0.003163132
 Force constants in Cartesian coordinates: 
                1             2             3             4             5 
      1  0.656075D+00
      2 -0.121701D+00  0.282866D+00
      3 -0.220979D-01 -0.744140D-01  0.678744D+00
      4 -0.100002D+00  0.107895D-01 -0.235021D-02  0.691141D-01
      5  0.107896D-01 -0.669357D-01 -0.789368D-02 -0.584709D-02  0.511980D-01
      6  0.000000D+00  0.000000D+00 -0.361033D+00  0.000000D+00  0.000000D+00
      7 -0.307763D+00  0.491578D-02  0.106382D+00  0.177371D-01  0.571041D-03
      8 -0.211031D-02 -0.669307D-01  0.131980D-01  0.125292D-02  0.436108D-02
      9  0.104035D+00  0.960036D-02 -0.153272D+00  0.346399D-01  0.111522D-02
     10 -0.237157D+00  0.106104D+00 -0.819128D-01  0.129141D-01 -0.614944D-02
     11  0.113131D+00 -0.137509D+00  0.691765D-01 -0.683121D-02  0.918882D-02
     12 -0.819153D-01  0.648807D-01 -0.153307D+00 -0.284035D-01  0.198559D-01
     13 -0.111521D-01 -0.108305D-03 -0.210314D-04  0.237058D-03  0.635880D-03
     14 -0.109790D-03 -0.114903D-01 -0.667956D-04  0.635869D-03  0.218786D-02
     15 -0.213900D-04 -0.670940D-04 -0.111328D-01 -0.388618D-02 -0.130774D-01
                6             7             8             9            10 
      6  0.361033D+00
      7  0.000000D+00  0.300395D+00
      8  0.000000D+00 -0.266399D-02  0.511957D-01
      9  0.000000D+00 -0.118424D+00 -0.520270D-02  0.129754D+00
     10  0.000000D+00 -0.884147D-02  0.148718D-01 -0.172671D-01  0.228444D+00
     11  0.000000D+00 -0.311255D-02  0.918709D-02 -0.607871D-02 -0.112937D+00
     12  0.000000D+00  0.111386D-01 -0.145214D-01  0.217534D-01  0.963714D-01
     13  0.000000D+00 -0.152756D-02 -0.113505D-01 -0.298328D-02  0.464071D-02
     14  0.000000D+00  0.289722D-03  0.218685D-02  0.565819D-03 -0.188950D-02
     15  0.000000D+00  0.903519D-03  0.652608D-02  0.176454D-02  0.280849D-02
               11            12            13            14            15 
     11  0.123114D+00
     12 -0.690596D-01  0.129787D+00
     13  0.974920D-02  0.280874D-02  0.780193D-02
     14 -0.398069D-02 -0.115558D-02  0.107370D-02  0.110963D-01
     15  0.596188D-02  0.176573D-02  0.195567D-03  0.656557D-03  0.760251D-02
 FCInt: Cartesian first derivatives: 
                 1             2             3             4             5 
      1   0.000000D+00  0.000000D+00  0.000000D+00  0.000000D+00  0.000000D+00
      2   0.000000D+00  0.000000D+00  0.000000D+00  0.000000D+00  0.000000D+00
      3   0.000000D+00  0.000000D+00  0.000000D+00  0.000000D+00  0.000000D+00
 FCInt: Cartesian force constants: 
                1             2             3             4             5 
      1  0.656075D+00
      2 -0.121701D+00  0.282866D+00
      3 -0.220979D-01 -0.744140D-01  0.678744D+00
      4 -0.100002D+00  0.107895D-01 -0.235021D-02  0.691141D-01
      5  0.107896D-01 -0.669357D-01 -0.789368D-02 -0.584709D-02  0.511980D-01
      6  0.000000D+00  0.000000D+00 -0.361033D+00  0.000000D+00  0.000000D+00
      7 -0.307763D+00  0.491578D-02  0.106382D+00  0.177371D-01  0.571041D-03
      8 -0.211031D-02 -0.669307D-01  0.131980D-01  0.125292D-02  0.436108D-02
      9  0.104035D+00  0.960036D-02 -0.153272D+00  0.346399D-01  0.111522D-02
     10 -0.237157D+00  0.106104D+00 -0.819128D-01  0.129141D-01 -0.614944D-02
     11  0.113131D+00 -0.137509D+00  0.691765D-01 -0.683121D-02  0.918882D-02
     12 -0.819153D-01  0.648807D-01 -0.153307D+00 -0.284035D-01  0.198559D-01
     13 -0.111521D-01 -0.108305D-03 -0.210314D-04  0.237058D-03  0.635880D-03
     14 -0.109790D-03 -0.114903D-01 -0.667956D-04  0.635869D-03  0.218786D-02
     15 -0.213900D-04 -0.670940D-04 -0.111328D-01 -0.388618D-02 -0.130774D-01
                6             7             8             9            10 
      6  0.361033D+00
      7  0.000000D+00  0.300395D+00
      8  0.000000D+00 -0.266399D-02  0.511957D-01
      9  0.000000D+00 -0.118424D+00 -0.520270D-02  0.129754D+00
     10  0.000000D+00 -0.884147D-02  0.148718D-01 -0.172671D-01  0.228444D+00
     11  0.000000D+00 -0.311255D-02  0.918709D-02 -0.607871D-02 -0.112937D+00
     12  0.000000D+00  0.111386D-01 -0.145214D-01  0.217534D-01  0.963714D-01
     13  0.000000D+00 -0.152756D-02 -0.113505D-01 -0.298328D-02  0.464071D-02
     14  0.000000D+00  0.289722D-03  0.218685D-02  0.565819D-03 -0.188950D-02
     15  0.000000D+00  0.903519D-03  0.652608D-02  0.176454D-02  0.280849D-02
               11            12            13            14            15 
     11  0.123114D+00
     12 -0.690596D-01  0.129787D+00
     13  0.974920D-02  0.280874D-02  0.780193D-02
     14 -0.398069D-02 -0.115558D-02  0.107370D-02  0.110963D-01
     15  0.596188D-02  0.176573D-02  0.195567D-03  0.656557D-03  0.760251D-02
 Internal force constants: 
                1             2             3             4             5 
      1  0.361033D+00
      2  0.000000D+00  0.361033D+00
      3  0.000000D+00  0.000000D+00  0.361033D+00
      4  0.000000D+00  0.000000D+00  0.000000D+00  0.115347D-01
      5  0.000000D+00  0.000000D+00  0.000000D+00  0.000000D+00  0.287409D+00
      6  0.000000D+00  0.000000D+00  0.000000D+00  0.000000D+00  0.114183D+00
      7  0.000000D+00  0.000000D+00  0.000000D+00  0.000000D+00  0.232631D-01
      8  0.000000D+00  0.000000D+00  0.000000D+00  0.000000D+00  0.603924D-01
      9  0.000000D+00  0.000000D+00  0.000000D+00  0.000000D+00 -0.386527D-01
                6             7             8             9 
      6  0.287415D+00
      7  0.232803D-01  0.240505D+00
      8  0.216206D-01 -0.681798D-01  0.168640D+00
      9  0.386642D-01  0.142186D-04 -0.116588D+00  0.233412D+00
 Frcnst in PutFF: 
                1             2             3             4             5 
      1  0.361033D+00
      2  0.000000D+00  0.361033D+00
      3  0.000000D+00  0.000000D+00  0.361033D+00
      4  0.000000D+00  0.000000D+00  0.000000D+00  0.287409D+00
      5  0.000000D+00  0.000000D+00  0.000000D+00  0.114183D+00  0.287415D+00
      6  0.000000D+00  0.000000D+00  0.000000D+00  0.603924D-01  0.216206D-01
      7  0.000000D+00  0.000000D+00  0.000000D+00 -0.386527D-01  0.386642D-01
      8  0.000000D+00  0.000000D+00  0.000000D+00  0.232631D-01  0.232803D-01
      9  0.000000D+00  0.000000D+00  0.000000D+00  0.000000D+00  0.000000D+00
                6             7             8             9 
      6  0.168640D+00
      7 -0.116588D+00  0.233412D+00
      8 -0.681798D-01  0.142186D-04  0.240505D+00
      9  0.000000D+00  0.000000D+00  0.000000D+00  0.115347D-01
 Force constants in internal coordinates: 
                1             2             3             4             5 
      1  0.361033D+00
      2  0.000000D+00  0.361033D+00
      3  0.000000D+00  0.000000D+00  0.361033D+00
      4  0.000000D+00  0.000000D+00  0.000000D+00  0.115347D-01
      5  0.000000D+00  0.000000D+00  0.000000D+00  0.000000D+00  0.287409D+00
      6  0.000000D+00  0.000000D+00  0.000000D+00  0.000000D+00  0.114183D+00
      7  0.000000D+00  0.000000D+00  0.000000D+00  0.000000D+00  0.232631D-01
      8  0.000000D+00  0.000000D+00  0.000000D+00  0.000000D+00  0.603924D-01
      9  0.000000D+00  0.000000D+00  0.000000D+00  0.000000D+00 -0.386527D-01
                6             7             8             9 
      6  0.287415D+00
      7  0.232803D-01  0.240505D+00
      8  0.216206D-01 -0.681798D-01  0.168640D+00
      9  0.386642D-01  0.142186D-04 -0.116588D+00  0.233412D+00
 Final forces over variables, Energy=-4.03415410D+01:
  1.30113469D-03 1.30598369D-03 1.30062290D-03 2.54877956D-03
  2.53730208D-03-7.60653289D-03-9.92046817D-07 2.42408490D-06
 -3.76363520D-03

 GradGradGradGradGradGradGradGradGradGradGradGradGradGradGradGradGradGrad
 Berny optimization.
 Search for a local minimum.
 Step number   1 out of a maximum of   50
 All quantities printed in internal units (Hartrees-Bohrs-Radians)
 Second derivative matrix not updated -- first step.
 The second derivative matrix:
                          R1        R2        R3        A2        A3
           R1           0.36103
           R2           0.00000   0.36103
           R3           0.00000   0.00000   0.36103
           A2           0.00000  -0.00000   0.00000   0.28741
           A3           0.00000  -0.00000  -0.00000   0.11418   0.28741
           D3           0.00000  -0.00000   0.00000   0.06039   0.02162
           DH1          0.00000   0.00000  -0.00000  -0.03865   0.03866
           ANG1         0.00000  -0.00000  -0.00000   0.02326   0.02328
           BB           0.00000   0.00000  -0.00000  -0.00000   0.00000
                          D3        DH1      ANG1       BB
           D3           0.16864
           DH1         -0.11659   0.23341
           ANG1        -0.06818   0.00001   0.24051
           BB          -0.00000   0.00000   0.00000   0.01153
 ITU=  0
     Eigenvalues ---    0.05338   0.14843   0.24330   0.34986   0.36103
     Eigenvalues ---    0.36103   0.36103   0.422411000.00000
 RFO step:  Lambda=-8.80886179D-04 EMin= 5.33808618D-02
 Linear search not attempted -- first point.
 Variable       Old X    -DE/DX   Delta X   Delta X   Delta X     New X
                                 (Linear)    (Quad)   (Total)
    R1        2.03920   0.00130   0.00000   0.00360   0.00360   2.04280
    R2        2.03920   0.00131   0.00000   0.00361   0.00361   2.04281
    R3        2.03920   0.00130   0.00000   0.00359   0.00359   2.04280
    A2        2.04403   0.00255   0.00000   0.01866   0.01866   2.06269
    A3        2.04417   0.00254   0.00000   0.01841   0.01841   2.06257
    D3        3.71950  -0.00761   0.00000  -0.10157  -0.10157   3.61794
   DH1        1.85965  -0.00000   0.00000  -0.05050  -0.05050   1.80915
   ANG1       1.74329   0.00000   0.00000  -0.03225  -0.03225   1.71104
    BB        5.66918  -0.00376   0.00000   0.00000   0.00000   5.66918
         Item               Value     Threshold  Converged?
 Maximum Force            0.007607     0.000450     NO 
 RMS     Force            0.003080     0.000300     NO 
 Maximum Displacement     0.101569     0.001800     NO 
 RMS     Displacement     0.040322     0.001200     NO 
 Predicted change in Energy=-4.468865D-04
 GradGradGradGradGradGradGradGradGradGradGradGradGradGradGradGradGradGrad

 ---------------------------------------------------------------------------------------------------
                            Z-MATRIX (ANGSTROMS AND DEGREES)
   CD    Cent   Atom    N1       Length/X        N2       Alpha/Y        N3        Beta/Z          J
 ---------------------------------------------------------------------------------------------------
      1      1  C 
      2      2  H        1   1.081002(     1)
      3      3  H        1   1.081010(     2)      2  118.183(     5)
      4      4  H        1   1.081002(     3)      2  118.177(     6)      3  207.292(     8)      0
      5      5  H        1   3.000000(     4)      2   98.035(     7)      3  103.656(     9)      0
 ---------------------------------------------------------------------------------------------------
                         Z-Matrix orientation:                         
 ---------------------------------------------------------------------
 Center     Atomic      Atomic             Coordinates (Angstroms)
 Number     Number       Type             X           Y           Z
 ---------------------------------------------------------------------
      1          6           0        0.000000    0.000000    0.000000
      2          1           0        0.000000    0.000000    1.081002
      3          1           0        0.952845    0.000000   -0.510556
      4          1           0       -0.846820    0.436935   -0.510440
      5          1           0       -0.701346   -2.886566   -0.419344
 ---------------------------------------------------------------------
                    Distance matrix (angstroms):
                    1          2          3          4          5
     1  C    0.000000
     2  H    1.081002   0.000000
     3  H    1.081010   1.854986   0.000000
     4  H    1.081002   1.854914   1.851947   0.000000
     5  H    3.000000   3.327941   3.328203   3.327930   0.000000
 Symmetry turned off by external request.
 Stoichiometry    CH4
 Framework group  C1[X(CH4)]
 Deg. of freedom     9
 Full point group                 C1      NOp   1
 Rotational constants (GHZ):    145.8935088     48.3293098     48.2947490
 Standard basis: Aug-CC-pVTZ (5D, 7F)
   138 basis functions,   180 primitive gaussians,   155 cartesian basis functions
     5 alpha electrons        5 beta electrons
       nuclear repulsion energy        11.2030955847 Hartrees.
 NAtoms=    5 NActive=    5 NUniq=    5 SFac= 1.00D+00 NAtFMM=   60 NAOKFM=F Big=F
 Integral buffers will be    131072 words long.
 Raffenetti 2 integral format.
 Two-electron integral symmetry is turned off.
 Nuclear repulsion after empirical dispersion term =       11.2025629409 Hartrees.
 One-electron integrals computed using PRISM.
 NBasis=   138 RedAO= T EigKep=  1.08D-04  NBF=   138
 NBsUse=   138 1.00D-06 EigRej= -1.00D+00 NBFU=   138
 ExpMin= 2.53D-02 ExpMax= 8.24D+03 ExpMxC= 2.81D+02 IAcc=3 IRadAn=         5 AccDes= 0.00D+00
 Harris functional with IExCor= 4639 and IRadAn=       5 diagonalized for initial guess.
 HarFok:  IExCor= 4639 AccDes= 0.00D+00 IRadAn=         5 IDoV= 1 UseB2=F ITyADJ=14
 ICtDFT=  3500011 ScaDFX=  1.000000  1.000000  1.000000  1.000000
 FoFCou: FMM=F IPFlag=           0 FMFlag=      100000 FMFlg1=           0
         NFxFlg=           0 DoJE=T BraDBF=F KetDBF=T FulRan=T
         wScrn=  0.000000 ICntrl=     500 IOpCl=  0 I1Cent=   200000004 NGrid=           0
         NMat0=    1 NMatS0=      1 NMatT0=    0 NMatD0=    1 NMtDS0=    0 NMtDT0=    0
 Symmetry not used in FoFCou.
 Mixing orbitals, IMix= 1 IMixAn=  0 NRI=1 NE=    5 Coef=  7.07106781D-01  7.07106781D-01
 Mixing orbitals, IMix= 1 IMixAn=  0 NRI=1 NE=    5 Coef= -7.07106781D-01  7.07106781D-01
 Initial guess <Sx>= 0.0000 <Sy>= 0.0000 <Sz>= 0.0000 <S**2>= 1.0000 S= 0.6180
 Keep R1 and R2 ints in memory in canonical form, NReq=186089057.
 Requested convergence on RMS density matrix=1.00D-08 within 128 cycles.
 Requested convergence on MAX density matrix=1.00D-06.
 Requested convergence on             energy=1.00D-06.
 No special actions if energy rises.
 SCF Done:  E(UwB97XD) =  -40.3422695001     A.U. after   15 cycles
            NFock= 15  Conv=0.47D-08     -V/T= 2.0076
 <Sx>= 0.0000 <Sy>= 0.0000 <Sz>= 0.0000 <S**2>= 0.9506 S= 0.5957
 <L.S>=  0.00000000000    
 Annihilation of the first spin contaminant:
 S**2 before annihilation     0.9506,   after     0.0255
 DipInt: DoE/N= T T RetVal/Mat= T F Init=T NMatP=  1 IDeriv=0 Min/MaxMlt=  1  1
 Entering OneElI...
 Multipole integrals L=1 to 1 MinM= 0 MaxM= 0.
 Requested accuracy = 0.1000D-12
 PrsmSu:  NPrtUS=   1 ThrOK=F IAlg=1 NPAlg=1 LenDen=           0.
 Prism:   IPart=     0 DynPar=F LinDyn=F Incr=          12.
 PRISM was handed   419324018 working-precision words and  1275 shell-pairs
 IPart=  0 NShTot=        1275 NBatch=          42 AvBLen=        30.4
 PrSmSu:  NxtVal=             13.
 Entering OneElI...
 Calculate overlap and kinetic energy integrals
    NBasis = 155  MinDer = 1  MaxDer = 1
 Requested accuracy = 0.1000D-12
 PrsmSu:  NPrtUS=  32 ThrOK=T IAlg=1 NPAlg=1 LenDen=           0.
 Prism:   IPart=     0 DynPar=F LinDyn=F Incr=           1.
 PRISM was handed    13082659 working-precision words and  1275 shell-pairs
 PRISM was handed    13082659 working-precision words and  1275 shell-pairs
 PRISM was handed    13082659 working-precision words and  1275 shell-pairs
 PRISM was handed    13082659 working-precision words and  1275 shell-pairs
 PRISM was handed    13082659 working-precision words and  1275 shell-pairs
 PRISM was handed    13082659 working-precision words and  1275 shell-pairs
 PRISM was handed    13082659 working-precision words and  1275 shell-pairs
 PRISM was handed    13082659 working-precision words and  1275 shell-pairs
 PRISM was handed    13082659 working-precision words and  1275 shell-pairs
 PRISM was handed    13082659 working-precision words and  1275 shell-pairs
 PRISM was handed    13082659 working-precision words and  1275 shell-pairs
 PRISM was handed    13082659 working-precision words and  1275 shell-pairs
[...]
     3  H    0.016162   0.001527  -0.029721   0.001531   0.002993
     4  H    0.016110   0.001535   0.001531  -0.029709   0.002950
     5  H   -0.007828   0.003004   0.002993   0.002950  -0.977803
 Mulliken charges and spin densities:
               1          2
     1  C   -1.089260   0.999265
     2  H    0.363358  -0.007489
     3  H    0.363338  -0.007509
     4  H    0.363077  -0.007584
     5  H   -0.000512  -0.976684
 Sum of Mulliken charges =  -0.00000   0.00000
 Mulliken charges and spin densities with hydrogens summed into heavy atoms:
               1          2
     1  C   -0.000000   0.000000
 APT charges:
               1
     1  C   -0.178414
     2  H    0.049053
     3  H    0.048378
     4  H    0.048271
     5  H    0.032712
 Sum of APT charges =  -0.00000
 APT charges with hydrogens summed into heavy atoms:
               1
     1  C   -0.000000
 Electronic spatial extent (au):  <R**2>=             65.4348
 Charge=              0.0000 electrons
 Dipole moment (field-independent basis, Debye):
    X=              0.0079    Y=              0.2175    Z=              0.0043  Tot=              0.2177
 Quadrupole moment (field-independent basis, Debye-Ang):
   XX=             -8.6324   YY=            -10.7687   ZZ=             -8.6279
   XY=             -0.0807   XZ=             -0.0019   YZ=             -0.0466
 Traceless Quadrupole moment (field-independent basis, Debye-Ang):
   XX=              0.7106   YY=             -1.4257   ZZ=              0.7151
   XY=             -0.0807   XZ=             -0.0019   YZ=             -0.0466
 Octapole moment (field-independent basis, Debye-Ang**2):
  XXX=              0.4662  YYY=             13.6068  ZZZ=              1.1939  XYY=              0.1654
  XXY=              4.4368  XXZ=             -0.8479  XZZ=              0.1540  YZZ=              4.3955
  YYZ=              0.0923  XYZ=              0.0358
 Hexadecapole moment (field-independent basis, Debye-Ang**3):
 XXXX=            -17.0213 YYYY=            -93.3502 ZZZZ=            -16.9512 XXXY=             -1.3678
 XXXZ=             -0.0300 YYYX=             -1.2971 YYYZ=             -0.7168 ZZZX=             -0.0255
 ZZZY=             -0.7280 XXYY=            -18.6891 XXZZ=             -5.6630 YYZZ=            -18.6830
 XXYZ=             -0.2833 YYXZ=             -0.0048 ZZXY=             -0.4560
 N-N= 1.123612457809D+01 E-N=-1.153247647324D+02  KE= 4.004557180587D+01
  Exact polarizability:  20.817   0.368  31.194   0.007   0.204  20.804
 Approx polarizability:  18.085   0.097  20.929   0.002   0.053  18.084
                          Isotropic Fermi Contact Couplings
        Atom                 a.u.       MegaHertz       Gauss      10(-4) cm-1
     1  C(13)              0.01364       7.66867       2.73637       2.55799
     2  H(1)              -0.01378     -30.79889     -10.98981     -10.27341
     3  H(1)              -0.01378     -30.79721     -10.98921     -10.27284
     4  H(1)              -0.01377     -30.78350     -10.98432     -10.26827
     5  H(1)              -0.28699    -641.40073    -228.86772    -213.94825
 --------------------------------------------------------
       Center         ----  Spin Dipole Couplings  ----
                      3XX-RR        3YY-RR        3ZZ-RR
 --------------------------------------------------------
     1   Atom       -0.544733      1.091109     -0.546376
     2   Atom       -0.071236     -0.004497      0.075733
     3   Atom        0.038906     -0.004484     -0.034422
     4   Atom        0.038985     -0.004524     -0.034460
     5   Atom       -0.007284      0.014586     -0.007302
 --------------------------------------------------------
                        XY            XZ            YZ
 --------------------------------------------------------
     1   Atom        0.062390      0.001378      0.036042
     2   Atom        0.002576     -0.000146     -0.004184
     3   Atom       -0.002340     -0.063677      0.004331
     4   Atom       -0.000933      0.063806     -0.000541
     5   Atom        0.000756      0.000015      0.000416
 --------------------------------------------------------


 ---------------------------------------------------------------------------------
              Anisotropic Spin Dipole Couplings in Principal Axis System
 ---------------------------------------------------------------------------------

       Atom             a.u.   MegaHertz   Gauss  10(-4) cm-1        Axes

              Baa    -0.5472   -73.425   -26.200   -24.492 -0.0847 -0.0187  0.9962
     1 C(13)  Bbb    -0.5471   -73.417   -26.197   -24.489  0.9957 -0.0398  0.0839
              Bcc     1.0943   146.842    52.397    48.981  0.0380  0.9990  0.0220
 
              Baa    -0.0713   -38.061   -13.581   -12.696  0.9993 -0.0385 -0.0001
     2 H(1)   Bbb    -0.0046    -2.463    -0.879    -0.821  0.0385  0.9979  0.0520
              Bcc     0.0760    40.524    14.460    13.517 -0.0019 -0.0520  0.9986
 
              Baa    -0.0713   -38.061   -13.581   -12.696  0.4992 -0.0386  0.8656
     3 H(1)   Bbb    -0.0046    -2.456    -0.876    -0.819  0.0644  0.9979  0.0074
              Bcc     0.0759    40.517    14.458    13.515  0.8641 -0.0521 -0.5006
 
              Baa    -0.0714   -38.072   -13.585   -12.700 -0.5006  0.0000  0.8657
     4 H(1)   Bbb    -0.0045    -2.422    -0.864    -0.808  0.0116  0.9999  0.0067
              Bcc     0.0759    40.494    14.449    13.507  0.8656 -0.0134  0.5005
 
              Baa    -0.0073    -3.900    -1.392    -1.301 -0.4197 -0.0028  0.9077
     5 H(1)   Bbb    -0.0073    -3.900    -1.392    -1.301  0.9070 -0.0393  0.4193
              Bcc     0.0146     7.801     2.783     2.602  0.0345  0.9992  0.0190
 

 ---------------------------------------------------------------------------------

 Calling FoFJK, ICntrl=    100127 FMM=F ISym2X=0 I1Cent= 0 IOpClX= 1 NMat=1 NMatS=1 NMatT=0.
 Full mass-weighted force constant matrix:
 Low frequencies --- -428.0708   -0.0013   -0.0006    0.0006   16.2465  115.3111
 Low frequencies ---  120.4120  206.4209  213.6740
 ******    1 imaginary frequencies (negative Signs) ****** 
 Diagonal vibrational polarizability:
        0.0994020      10.1576267       0.0898188
 Harmonic frequencies (cm**-1), IR intensities (KM/Mole), Raman scattering
 activities (A**4/AMU), depolarization ratios for plane and unpolarized
 incident light, reduced masses (AMU), force constants (mDyne/A),
 and normal coordinates:
                      1                      2                      3
                      A                      A                      A
 Frequencies --   -428.0673               203.6786               212.6561
 Red. masses --      1.0819                 1.0180                 1.0180
 Frc consts  --      0.1168                 0.0249                 0.0271
 IR Inten    --   22.97                 0.5738E-01             0.6156E-01
  Atom  AN      X      Y      Z        X      Y      Z        X      Y      Z
     1   6    -0.00  -0.08  -0.00     0.03  -0.00   0.00    -0.00  -0.00   0.03
     2   1    -0.00  -0.01  -0.00     0.02   0.11   0.00     0.02   0.74   0.03
     3   1    -0.00  -0.00   0.00     0.04   0.59   0.01    -0.02  -0.46   0.00
     4   1     0.00  -0.01   0.00    -0.01  -0.69  -0.01    -0.01  -0.28   0.01
     5   1     0.03   1.00   0.02    -0.40   0.01  -0.06     0.06   0.01  -0.40
                      4                      5                      6
                      A                      A                      A
 Frequencies --    558.9997              1409.9272              1410.6700
 Red. masses --      1.2024                 1.1017                 1.1016
 Frc consts  --      0.2214                 1.2903                 1.2915
 IR Inten    --   78.98                  3.028                  3.016    
  Atom  AN      X      Y      Z        X      Y      Z        X      Y      Z
     1   6     0.01   0.13   0.00    -0.09   0.00  -0.02    -0.02  -0.00   0.09
     2   1    -0.02  -0.57   0.00     0.79  -0.03  -0.01     0.15  -0.02   0.07
     3   1    -0.01  -0.57  -0.02     0.22  -0.01   0.49    -0.35   0.04  -0.50
     4   1    -0.03  -0.57  -0.02     0.07  -0.01  -0.26     0.40   0.01  -0.65
     5   1     0.00   0.12   0.00    -0.00   0.00  -0.00     0.00   0.00   0.00
                      7                      8                      9
                      A                      A                      A
 Frequencies --   3123.0951              3304.4796              3304.8102
 Red. masses --      1.0079                 1.1185                 1.1186
 Frc consts  --      5.7922                 7.1963                 7.1982
 IR Inten    --  0.8663E-03              3.095                  3.093    
  Atom  AN      X      Y      Z        X      Y      Z        X      Y      Z
     1   6    -0.00  -0.00  -0.00     0.10  -0.00   0.03    -0.03  -0.00   0.10
     2   1    -0.00  -0.00   0.58     0.01  -0.00  -0.23    -0.00   0.00  -0.78
     3   1     0.50  -0.00  -0.29    -0.48   0.00   0.29     0.52  -0.00  -0.29
     4   1    -0.50   0.04  -0.29    -0.68   0.05  -0.40    -0.17   0.01  -0.08
     5   1     0.00   0.00   0.00    -0.00  -0.00  -0.00     0.00  -0.00  -0.00

 -------------------
 - Thermochemistry -
 -------------------
 Temperature   298.150 Kelvin.  Pressure   1.00000 Atm.
 Atom     1 has atomic number  6 and mass  12.00000
 Atom     2 has atomic number  1 and mass   1.00783
 Atom     3 has atomic number  1 and mass   1.00783
 Atom     4 has atomic number  1 and mass   1.00783
 Atom     5 has atomic number  1 and mass   1.00783
 Molecular mass:    16.03130 amu.
 Principal axes and moments of inertia in atomic units:
                           1         2         3
     Eigenvalues --    12.54771  36.72772  36.73234
           X            0.03418  -0.07895   0.99629
           Y            0.99924  -0.01595  -0.03554
           Z            0.01870   0.99675   0.07834
 This molecule is an asymmetric top.
 Rotational symmetry number  1.
 Rotational temperatures (Kelvin)      6.90276     2.35827     2.35797
 Rotational constants (GHZ):         143.83029    49.13839    49.13221
    1 imaginary frequencies ignored.
 Zero-point vibrational energy      80917.3 (Joules/Mol)
                                   19.33970 (Kcal/Mol)
 Warning -- explicit consideration of   3 degrees of freedom as
           vibrations may cause significant error
 Vibrational temperatures:    293.05   305.96   804.27  2028.57  2029.64
          (Kelvin)           4493.43  4754.40  4754.88
 
 Zero-point correction=                           0.030820 (Hartree/Particle)
 Thermal correction to Energy=                    0.034947
 Thermal correction to Enthalpy=                  0.035891
 Thermal correction to Gibbs Free Energy=         0.009084
 Sum of electronic and zero-point Energies=            -40.312455
 Sum of electronic and thermal Energies=               -40.308328
 Sum of electronic and thermal Enthalpies=             -40.307384
 Sum of electronic and thermal Free Energies=          -40.334191
 
                     E (Thermal)             CV                S
                      KCal/Mol        Cal/Mol-Kelvin    Cal/Mol-Kelvin
 Total                   21.929             10.943             56.419
 Electronic               0.000              0.000              0.000
 Translational            0.889              2.981             34.261
 Rotational               0.889              2.981             17.477
 Vibrational             20.152              4.981              4.681
 Vibration     1          0.639              1.835              2.100
 Vibration     2          0.644              1.822              2.021
 Vibration     3          0.915              1.120              0.526
                       Q            Log10(Q)             Ln(Q)
 Total Bot       0.663019D-04         -4.178474         -9.621292
 Total V=0       0.994505D+10          9.997607         23.020341
 Vib (Bot)       0.178430D-13        -13.748532        -31.657166
 Vib (Bot)    1  0.977583D+00         -0.009847         -0.022672
 Vib (Bot)    2  0.932979D+00         -0.030128         -0.069372
 Vib (Bot)    3  0.278308D+00         -0.555475         -1.279029
 Vib (V=0)       0.267639D+01          0.427549          0.984467
 Vib (V=0)    1  0.159803D+01          0.203585          0.468771
 Vib (V=0)    2  0.155851D+01          0.192710          0.443732
 Vib (V=0)    3  0.107224D+01          0.030291          0.069747
 Electronic      0.100000D+01          0.000000          0.000000
 Translational   0.252295D+07          6.401908         14.740939
 Rotational      0.147282D+04          3.168150          7.294935
 -------------------------------------------------------------------
 Center     Atomic                   Forces (Hartrees/Bohr)
 Number     Number              X              Y              Z
 -------------------------------------------------------------------
      1        6          -0.000117292   -0.003398811   -0.000149213
      2        1           0.000007106   -0.000000677    0.000014430
      3        1           0.000018053   -0.000008161    0.000036409
      4        1          -0.000021944   -0.000014149    0.000036931
      5        1           0.000114077    0.003421799    0.000061442
 -------------------------------------------------------------------
 Cartesian Forces:  Max     0.003421799 RMS     0.001246795
 -----------------------------------------------------------------------------------------------
                       Internal Coordinate Forces (Hartree/Bohr or radian)
  Cent   Atom   N1       Length/X         N2         Alpha/Y        N3         Beta/Z          J
 -----------------------------------------------------------------------------------------------
      1  C 
      2  H        1   0.000014(     1)
      3  H        1  -0.000003(     2)      2  -0.000083(     5)
      4  H        1  -0.000000(     3)      2  -0.000086(     6)      3  -0.000028(     8)     0
      5  H        1  -0.003424(     4)      2   0.000028(     7)      3   0.000032(     9)     0
 -----------------------------------------------------------------------------------------------
 Internal  Forces:  Max     0.003424243 RMS     0.001142245

 GradGradGradGradGradGradGradGradGradGradGradGradGradGradGradGradGradGrad
 Berny optimization.
 Search for a local minimum.
 Step number   1 out of a maximum of    2
 All quantities printed in internal units (Hartrees-Bohrs-Radians)
 Second derivative matrix not updated -- analytic derivatives used.
 The second derivative matrix:
                          R1        R2        R3        A2        A3
           R1           0.37196
           R2          -0.00000   0.37197
           R3           0.00000   0.00002   0.37192
           A2           0.01574   0.00011  -0.01575   0.18883
           A3           0.01574  -0.01575   0.00008   0.09419   0.18901
           D3           0.00012  -0.00099  -0.00103   0.00622   0.00584
           DH1          0.00002  -0.00017   0.00017  -0.00045   0.00046
           ANG1        -0.00021   0.00010   0.00010  -0.00042  -0.00042
           BB          -0.00005  -0.00004  -0.00003  -0.00005  -0.00006
                          D3        DH1      ANG1       BB
           D3           0.01297
           DH1         -0.00364   0.00735
           ANG1        -0.00206  -0.00007   0.00682
           BB           0.00112   0.00018   0.00001  -0.00632
 ITU=  0
     Eigenvalues ---    0.00490   0.00703   0.01493   0.09383   0.27568
     Eigenvalues ---    0.37197   0.37283   0.379661000.00000
 Angle between quadratic step and forces=  67.14 degrees.
 Linear search not attempted -- first point.
 Variable       Old X    -DE/DX   Delta X   Delta X   Delta X     New X
                                 (Linear)    (Quad)   (Total)
    R1        2.03762   0.00001   0.00000   0.00007   0.00007   2.03768
    R2        2.03772  -0.00000   0.00000  -0.00002  -0.00002   2.03769
    R3        2.03770  -0.00000   0.00000  -0.00001  -0.00001   2.03769
    A2        2.09397  -0.00008   0.00000  -0.00026  -0.00026   2.09371
    A3        2.09383  -0.00009   0.00000  -0.00034  -0.00034   2.09350
    D3        3.21760  -0.00003   0.00000   0.00001   0.00001   3.21761
   DH1        1.60577   0.00003   0.00000   0.00439   0.00439   1.61015
   ANG1       1.59018   0.00003   0.00000   0.00411   0.00411   1.59429
    BB        5.66918  -0.00342   0.00000   0.00000   0.00000   5.66918
         Item               Value     Threshold  Converged?
 Maximum Force            0.000086     0.000450     YES
 RMS     Force            0.000046     0.000300     YES
 Maximum Displacement     0.004388     0.001800     NO 
 RMS     Displacement     0.002009     0.001200     NO 
 Predicted change in Energy=-1.529712D-07
 GradGradGradGradGradGradGradGradGradGradGradGradGradGradGradGradGradGrad


 Test job not archived.
 1\1\GINC-NODE-6-10\Freq\UwB97XD\Aug-CC-pVTZ\C1H4\CAVALLOTTI\03-Jun-202
 3\1\\#N Geom=AllCheck Guess=TCheck SCRF=Check Test GenChk UwB97XD/Aug-
 CC-pVTZ Freq\\geom 0\\0,1\C\H,1,R1\H,1,R2,2,A2\H,1,R3,2,A3,3,D3,0\H,1,
 BB,2,ANG1,3,DH1,0\\R1=1.07826143\R2=1.07831239\R3=1.07830657\A2=119.97
 545903\A3=119.96781369\D3=184.35496977\DH1=92.0036589\ANG1=91.11058255
 \BB=3.\\Version=EM64L-G09RevD.01\HF=-40.3432748\S2=0.953366\S2-1=0.\S2
 A=0.027352\RMSD=2.136e-09\RMSF=1.247e-03\ZeroPoint=0.0308198\Thermal=0
 .0349467\Dipole=0.0030995,0.0855881,0.0017103\DipoleDeriv=0.0113346,-0
 .0214098,-0.0003967,-0.0213137,-0.5587421,-0.0124761,-0.0003975,-0.012
 2385,0.0121645,0.0454432,0.0040224,-0.0002752,0.0038942,0.148908,-0.00
 63777,0.0000157,0.0011373,-0.0471928,-0.0242985,0.0028393,0.0397555,-0
 .0035447,0.1472382,0.0064846,0.039384,0.0028002,0.0221944,-0.0233047,0
 .0100076,-0.0391637,0.0162224,0.1458418,0.009858,-0.0390762,0.0059104,
 0.0222774,-0.0091746,0.0045405,0.00008,0.0047418,0.1167542,0.0025111,0
 .0000741,0.0023905,-0.0094436\Polar=20.8165729,0.3682121,31.1935685,0.
 0074361,0.2036634,20.8044768\PG=C01 [X(C1H4)]\NImag=1\\0.61966175,-0.0
 2274842,0.02040966,-0.00058200,-0.01323676,0.62064979,-0.05481190,0.00
 171490,-0.00003951,0.04545130,0.00172826,-0.00911555,-0.00097444,-0.00
 156391,0.00428823,0.00003157,0.00079983,-0.35861304,-0.00001675,-0.000
 66050,0.37195771,-0.28273860,0.00160257,0.13153788,0.00472616,0.000129
 32,-0.00386176,0.29043991,-0.00001037,-0.00900561,0.00199197,0.0001797
 4,0.00268865,0.00003524,-0.00134681,0.00415635,0.13151266,0.00111415,-
 0.13063485,0.02359396,0.00014036,-0.00669037,-0.14132538,-0.00103729,0
 .12701173,-0.28129757,0.01915392,-0.13092765,0.00468606,-0.00027542,0.
 00384936,-0.01243517,0.00155791,-0.01373084,0.28901548,0.02074336,-0.0
 1050570,0.01204671,-0.00030391,0.00275356,-0.00022349,-0.00040817,0.00
 280073,-0.00017599,-0.02037093,0.00559963,-0.13097244,0.01115288,-0.13
 059786,-0.02351903,0.00191988,-0.00669242,0.01368216,-0.00119030,0.010
 33712,0.14076151,-0.01183815,0.12697721,-0.00081367,0.00027702,0.00001
 127,-0.00005163,-0.00001825,-0.00000242,0.00000771,-0.00038047,-0.0000
 5039,0.00003120,0.00033965,0.00004780,0.00082639,0.00028716,0.00821720
 ,0.00017253,-0.00002682,-0.00061489,0.00004892,0.00002308,-0.00064012,
 -0.00004123,-0.00006548,-0.00064822,-0.00004431,-0.00021795,-0.0063139
 7,0.00001022,0.00016991,-0.00080404,-0.00001867,-0.00042530,0.00003812
 ,-0.00003290,0.00020038,-0.00002364,0.00004762,0.00019092,-0.00002405,
 -0.00000627,-0.00013591,0.00081361\\0.00011729,0.00339881,0.00014921,-
 0.00000711,0.00000068,-0.00001443,-0.00001805,0.00000816,-0.00003641,0
 .00002194,0.00001415,-0.00003693,-0.00011408,-0.00342180,-0.00006144\\
 \@


 In the beginning the Universe was created.
 This has made a lot of people very angry
 and been widely regarded as a bad move.
                               -D.Adams
 Job cpu time:       0 days  0 hours  8 minutes 46.8 seconds.
 File lengths (MBytes):  RWF=     66 Int=      0 D2E=      0 Chk=      3 Scr=      1
 Normal termination of Gaussian 09 at Sat Jun  3 08:53:22 2023.
