[Molden Format]
[Molpro variables]
_NUMVAR=  1038.000000000000    
_AVOGAD= 0.6022140760000000E+24
_BOLTZ= 0.1380649000000000E-22
_CLIGHTSI=  299792458.0000000    
_JOULE= 0.4359744722207100E-17
_JPCAL=  4.184000000000000    
_PLANCK= 0.6626070150000000E-33
_BOHR= 0.5291772109030000E-10
_ECHARG= 0.1602176634000000E-18
_ENULL= 0.8854187812800001E-11
_MU= 0.1660539066600000E-26
_EMASS= 0.9109383701500001E-30
_AMU2AU=  1822.888486217313    
_CLIGHT=  29979245800.00000    
_EV= 0.3674932217565494E-01
_KJOULE= 0.3808798847133432E-03
_KJOULE/MOL= 0.3808798847133432E-03
_CM= 0.4556335252912009E-05
_CM-1= 0.4556335252912009E-05
_DEB2SI= 0.3335640951981520E-29
_KCAL= 0.1593601437640628E-02
_KCAL/MOL= 0.1593601437640628E-02
_KELVIN= 0.3166811563455608E-05
_HERTZ= 0.1519829846057038E-15
_HZ= 0.1519829846057038E-15
_TOA= 0.5291772109030000    
_TOANG= 0.5291772109030000    
_TORAD= 0.1745329251994330E-01
_TOCM=  219474.6313631965    
_TODEBYE=  2.541746473194078    
_TOE= 0.4803204712570263E-09
_TOEV=  27.21138624598803    
_TOHERTZ=  6579683920501656.    
_TOHZ=  6579683920501656.    
_TOK=  315775.0248040668    
_TOKCAL=  627.5094740630558    
_TOKELVIN=  315775.0248040668    
_TOKJ=  2625.499639479825    
_TOKJOULE=  2625.499639479825    
_TOKG= 0.1660539066600000E-26
_ANG=  1.889726124625770    
_ANGSTROM=  1.889726124625770    
_RPAREF=  0.000000000000000    
_RPADISS=  0.000000000000000    
_IGNORE_UNDEF=  2.000000000000000    
_STRICTCHECK=  0.000000000000000    
!SEWARD=  0.000000000000000    
!MULTI=  0.000000000000000    
!DFMULTI=  0.000000000000000    
_SEW_ONEEL=  0.000000000000000    
_CPPDONE=FALSE
_DKROLL_DONE=  0.000000000000000    
_FNUC_DONE=  0.000000000000000    
_FOCKDONE=  0.000000000000000    
_GRADONE=FALSE
_HESSDONE=FALSE
_INTDONE=TRUE
_SCFDONE=FALSE
_MODUL_BLOCK=FALSE
_MODUL_CUDA=FALSE
_MODUL_SLATER=FALSE
_MODUL_MRCC=TRUE
_MODUL_NBO6=FALSE
_MODUL_NECI=FALSE
_MODUL_AIMS=TRUE
_MODUL_GECCO=FALSE
_ISWINDOWS=FALSE
_MRCC_EXEC=/software/cinetica/mrcc/bin/dmrcc
_FITC_AO_SAVED=FALSE
_FITC_MO_SAVED=FALSE
_SHARED_FS=TRUE
_LSTYP=SEWARD
_INTYP=INTS
_GEOMTYP=ZMAT
_GRADTYP=ALASKA
_DIRECT=FALSE
_DKHO= -1.000000000000000    
_FNUC=  0.000000000000000    
_SYNCM=  0.000000000000000    
_BASIS=CC-PVDZ
_ZORIENT=  1.000000000000000    
!ZORIENT=  0.000000000000000    
_NELEC=  10.00000000000000    
!SPIN=  0.000000000000000    
_QSDSTEP=  0.000000000000000    
_QSDIRC=  0.000000000000000    
_PROGRAM=RS2
_CPUSTEP= 0.8000000000000007E-01
_SYSSTEP= 0.2999999999999997E-01
_WALLSTEP= 0.2400000000000000    
!DFMP2=  0.000000000000000    
!DFHFENERG=  0.000000000000000    
!SCSGRD=  0.000000000000000    
_CPUTOT= 0.7100000000000000    
_DMX= 0.3290409285664263E-03
_DMY= 0.1780854970966899E-03
_DMZ=-0.1674080658387371    
_EMP2= -40.20107608074511    
_ENERGR= -40.06601857380633    
_ENERGU= -40.19266969998620    
_ENERGY= -40.20107608074511    
_ENERGY_METHOD=RS2
_ENERGY_BASIS=cc-pVDZ
_GEOMETRY_METHOD=
_GEOMETRY_BASIS=
_ENERGY_AVRG= -40.06601857380635    
_ENUC=  11.33994212327126    
_GRADMETHOD=  9.000000000000000    
_NMRMETHOD=  0.000000000000000    
_NMRMAGNET=  0.000000000000000    
!GRID_FREEZE= -1.000000000000000    
!NEESE_INDEX=  0.000000000000000    
_ITERATIONS=  5.000000000000000    
_LASTNELEC=  2.000000000000000    
_LASTSPIN=  0.000000000000000    
_LASTSYM=  1.000000000000000    
_MPP_PROG=  1.000000000000000    
_MSNSTATES=  0.000000000000000    
_RS2PHASE=  0.000000000000000    
_IPROC_MPP=  0.000000000000000    
_IPROC_MPPX=  0.000000000000000    
_NPROC_MPP=  4.000000000000000    
_NPROC_MPPX=  4.000000000000000    
_NPROC_SMP=  1.000000000000000    
_NUMSTEP=  0.000000000000000    
_ORBITAL=  2140.200000000000    
_PI=  3.141592653589793    
!MCACT=  2.000000000000000    
!MCCLOSED=  4.000000000000000    
!MCFREEZE=  0.000000000000000    
!MCMS2=  0.000000000000000    
!MCNEL=  2.000000000000000    
!MCNSTSYM=  1.000000000000000    
!MCSTATE=  1.000000000000000    
!MCSYM=  1.000000000000000    
!MCWEIGHT=  1.000000000000000    
_SEIG_MIN= 0.1496060429759541E-01
_SEWPROP=TRUE
_STATUS=  1.000000000000000    
_SYSTOT= 0.3400000000000000    
_VERSION=  2022002.000000000    
_WALLTOT=  1.600000000000000    
_DATE=03-Jun-23
_LASTORB=MCSCF
_OUTPUT=/home/chimica2/cavallotti/qm/barrierless/vrc_autom/folders/ch3+h/dist_2.8/molpro.out
_PGROUP=C1
_TIME=09:00:18
_LIBMOL=/software/cinetica/molpro_2022.2/lib/
_VIGRDC=  0.000000000000000    
!VIBCNT=  0.000000000000000    
!RGHFCNT=  0.000000000000000    
!SURFREC=  0.000000000000000    
!XSURFREC=  0.000000000000000    
!XPOLYREC=  0.000000000000000    
!ROTREC=  0.000000000000000    
!POLYREC=  0.000000000000000    
!DIPREC=  0.000000000000000    
!DIP4DREC=  0.000000000000000    
!DIPROT=  0.000000000000000    
!DIP4DROT=  0.000000000000000    
!PTREC=  0.000000000000000    
!PT4DREC=  0.000000000000000    
!VSCFREC=  0.000000000000000    
!VCIREC=  0.000000000000000    
!PVCIREC=  0.000000000000000    
!VMP2REC=  0.000000000000000    
!VMCSCFREC=  0.000000000000000    
!VMRCIREC=  0.000000000000000    
!VIBSTATEREC=  0.000000000000000    
!VIBSTATECNT=  0.000000000000000    
!VIBINFO=  0.000000000000000    
!GAREC=  0.000000000000000    
!MCORB=  21402.00000000000    
!DEFCORE=  1.000000000000000    
!SCORE=  0.000000000000000    
!NEWMOL= -1.000000000000000    
!NEWSYM= -1.000000000000000    
_SLFILES=slscratch
_NGSSTO=  9.000000000000000    
_SIN=SIN
_COS=COS
_TAN=TAN
_ACOS=ACOS
_ASIN=ASIN
_ATAN=ATAN
_COSH=COSH
_SINH=SINH
_TANH=TANH
_ABS=ABS
_MOD=MOD
_ERF=ERF
_REFC=REFC
_ERFC=ERFC
_HYPOT=HYPOT
_J0=J0
_J1=J1
_JN=JN
_GAMMA=GAMMA
_LGAMMA=LGAMMA
_Y0=Y0
_Y1=Y1
_YN=YN
_EXP=EXP
_LOG=LOG
_LOG10=LOG10
_SQRT=SQRT
_INT=INT
_NINT=NINT
_MAX=MAX
_MIN=MIN
_COSMO=  0.000000000000000    
_COSMOIT=  0.000000000000000    
_COSMOES=  0.000000000000000    
_COSMOEDS=  0.000000000000000    
_COSMOEC=  0.000000000000000    
_COSMOEDCORR=  0.000000000000000    
_FEPSI=  1.000000000000000    
_SL_IsMM=  0.000000000000000    
_SL_NSYM=  1.000000000000000    
_SL_System_BitSw=  0.000000000000000    
_SL_Unique_atoms=  0.000000000000000    
_SL_GRAD=  0.000000000000000    
_SL_MAXUPD_Hess=  5.000000000000000    
_SL_N_PRINT_COD=  5.000000000000000    
_SL_PRINT_CODES=  0.000000000000000    
_SL_BasType=  0.000000000000000    
_SL_Energy_Pred=  0.000000000000000    
_SL_New_Coords=  0.000000000000000    
_SL_Total_Nuclea=  0.000000000000000    
_SL_Highest_Mltp=  0.000000000000000    
_SL_Ref_Geom=  0.000000000000000    
_SL_Symmetry_ope=  1.000000000000000    
_SL_agrad=  0.000000000000000    
_SL_GrdMax=  0.000000000000000    
_SL_GrdNorm=  0.000000000000000    
_SL_GrdRMS=  0.000000000000000    
_SL_Hss_Q=  0.000000000000000    
_SL_Hss_X=  0.000000000000000    
_SL_BMxOld=  0.000000000000000    
_SL_KtB=  0.000000000000000    
_SL_TROld=  0.000000000000000    
_SL_No_of_Intern=  0.000000000000000    
_SL_Hess=  0.000000000000000    
_SL_K=  0.000000000000000    
!LATTICE= -1.000000000000000    
!NEWLATTICE=  0.000000000000000    
!LATGRAD_VAR=FALSE
!SEW_LATTICE=  1.000000000000000    
!AIC_ONEEL=  0.000000000000000    
!LOCAL=  0.000000000000000    
!SAVEDOM= -1.000000000000000    
!RESTDOM= -1.000000000000000    
!SAVEDOM_HF= -1.000000000000000    
!RESTDOM_HF= -1.000000000000000    
!HESSREC=  0.000000000000000    
!FREQREC=  0.000000000000000    
!NMODREC=  0.000000000000000    
!GTASKS=  0.000000000000000    
!HTASKS=  0.000000000000000    
!SAVEDOM_EOM= -1.000000000000000    
!RESTDOM_EOM= -1.000000000000000    
!GRADSTATE= -1.000000000000000    
!DEBUG=  0.000000000000000    
!CFIT_CPHF=  0.000000000000000    
!RDOMAUX_CPHF=  0.000000000000000    
!THRAO_CPHF= 0.1000000000000000E-11
!THRMO_CPHF= 0.1000000000000000E-11
!THROV_CPHF= 0.1000000000000000E-11
!THRSW_CPHF= 0.1000000000000000E-11
!THRPROD_CPHF= 0.1000000000000000E-11
!THRAOPR_CPHF= 0.1000000000000000E-11
!CFIT_SCFGRD=  0.000000000000000    
!RDOMAUX_SCFGRD=  0.000000000000000    
!THRAO_SCFGRD= 0.1000000000000000E-11
!THRMO_SCFGRD= 0.1000000000000000E-11
!THROV_SCFGRD= 0.1000000000000000E-11
!THRSW_SCFGRD= 0.1000000000000000E-11
!THRPROD_SCFGRD= 0.1000000000000000E-11
!THRAOPR_SCFGRD= 0.1000000000000000E-11
!LOCFIT_SCF=  0.000000000000000    
!LOCFIT_MP2=  0.000000000000000    
_RIDOM=  0.000000000000000    
!CC2_METHOD=  0.000000000000000    
_BASIS2006=FALSE
_SVDDEL= -1.000000000000000    
_SVDDELA= -1.000000000000000    
_SVDDELP= -1.000000000000000    
_SVDDELF= -1.000000000000000    
_SVDDELS= -1.000000000000000    
_SVDDEL_ABS= -1.000000000000000    
_SVDDELA_ABS= -1.000000000000000    
_SVDDELP_ABS= -1.000000000000000    
_SVDDELF_ABS= -1.000000000000000    
_SVDDELS_ABS= -1.000000000000000    
_MAXBASIS=  0.000000000000000    
!OPT_CONICAL=  0.000000000000000    
!CLEARSP_JGRID=  0.000000000000000    
_GRDHYBR=  0.000000000000000    
_STATEGRAD=  1.000000000000000    
_4EXT_NDISKS=  1.000000000000000    
!EMBEDFLAG=  1.000000000000000    
!EMBED=FALSE
!EMBED_F12=FALSE
!EMBEDNUC=  0.000000000000000    
_EMBEDENERGY=  0.000000000000000    
!EMBED_DFC=FALSE
!NUM_VOIDS=  0.000000000000000    
_IBODY=  0.000000000000000    
_EMBE_CORR=  0.000000000000000    
!EMBED_PROJ=FALSE
!EMB_PROJ_ZMU=  1000000.000000000    
!CORRECTION_HF=  0.000000000000000    
!EMBED_AORB=  0.000000000000000    
!EMBED_NACORR=  0.000000000000000    
!EMBED_MP2=FALSE
!EMBED_TRUNC_PERTURBATION=FALSE
!EMBED_FROZEN=  0.000000000000000    
!EMBED_ACTIVE=  0.000000000000000    
_CHANGE_BASIS=FALSE
_RESTORE_BASIS=FALSE
_FIX_EMBED_GUESS=FALSE
_EMBED_SCF=FALSE
_HUZINAGA_T=FALSE
_HUZINAGA_F=FALSE
_HUZINAGA=FALSE
_HUZINAGA_CORRECT=FALSE
!FASTLATGRAD=  1.000000000000000    
!FASTVLAMBDA= -1.000000000000000    
!IFORCE= -1.000000000000000    
!USESYM= -1.000000000000000    
_SINDEX=  0.000000000000000    
_AVDOM_OSV=  0.000000000000000    
_AVDOM_PNO=  0.000000000000000    
_AVDOM_PAO=  0.000000000000000    
_AVDOM_LMO=  0.000000000000000    
_CC2OSV_FLAG=  0.000000000000000    
_EOMCCSD_CONV=FALSE
_TMADC2_FLAG=FALSE
_PROPADC2_FLAG=FALSE
_LEN_VirQ=  0.000000000000000    
_GRDCC2LR_FLAG=FALSE
_GRDADC2_FLAG=FALSE
_DMX_CC=-0.2754283731197127E-02
_DMY_CC=-0.1325732604075647E-02
_DMZ_CC=  2.822598194344768    
_DMX_NUC=-0.1489897514999850E-02
_DMY_NUC=-0.1451586904999982E-02
_DMZ_NUC=  1.879954628851999    
_RO_VGLOBAL=  0.000000000000000    
_OPT=FALSE
_FREQ=FALSE
_HESS=FALSE
_CMRCC_callName=EMPTY
_CMRCC_callCount=  0.000000000000000    
_GECCO_CIROOT=  1.000000000000000    
_SYM_CATION=  0.000000000000000    
_MON_A=FALSE
_MON_B=FALSE
R1=  1.078300000000000    
R2=  1.078400000000000    
R3=  1.078400000000000    
A2=  119.8783000000000    
A3=  119.8698000000000    
D3=  187.5802000000000    
DH1=  93.63670000000000    
ANG1=  92.07060000000000    
BB=  2.800000000000000    
GX1= 0.2518256995917910E-03
GY1= 0.2453503569604630E-03
GZ1=-0.3177539958352324    
GX2= 0.1774719380696926    
GY2=  2.028929121656291    
GZ2=-0.3900213558895120    
GX3=  1.668476952767326    
GY3= -1.167839484061038    
GZ3=-0.3923214154266764    
GX4= -1.844592123441896    
GY4=-0.8611236770571018    
GZ4=-0.4046548414570945    
GX5=-0.4357619110299688E-02
GY5=-0.2889649584574827E-02
GZ5=  4.973476216635595    
CBSEN= -40.20107608074511    
[Atoms] Angs
C     1    6         0.0001332604        0.0001298338       -0.1681481733
H     2    1         0.0939141052        1.0736630537       -0.2063904133
H     3    1         0.8829199803       -0.6179940410       -0.2076075524
H     4    1        -0.9761161151       -0.4556870257       -0.2141341204
H     5    1        -0.0023059527       -0.0015291367        2.6318502728
[GTO]
   1 0
 s    9  1.00
  0.6665000000D+04  0.6920001793D-03
  0.1000000000D+04  0.5329001381D-02
  0.2280000000D+03  0.2707700701D-01
  0.6471000000D+02  0.1017180264D+00
  0.2106000000D+02  0.2747400712D+00
  0.7495000000D+01  0.4485641162D+00
  0.2797000000D+01  0.2850740738D+00
  0.5215000000D+00  0.1520400394D-01
  0.1596000000D+00 -0.3191000827D-02
 s    9  1.00
  0.6665000000D+04 -0.1460000642D-03
  0.1000000000D+04 -0.1154000508D-02
  0.2280000000D+03 -0.5725002519D-02
  0.6471000000D+02 -0.2331201026D-01
  0.2106000000D+02 -0.6395502813D-01
  0.7495000000D+01 -0.1499810660D+00
  0.2797000000D+01 -0.1272620560D+00
  0.5215000000D+00  0.5445292395D+00
  0.1596000000D+00  0.5804962554D+00
 s    9  1.00
  0.6665000000D+04  0.0000000000D+00
  0.1000000000D+04  0.0000000000D+00
  0.2280000000D+03  0.0000000000D+00
  0.6471000000D+02  0.0000000000D+00
  0.2106000000D+02  0.0000000000D+00
  0.7495000000D+01  0.0000000000D+00
  0.2797000000D+01  0.0000000000D+00
  0.5215000000D+00  0.0000000000D+00
  0.1596000000D+00  0.1000000000D+01
 p    4  1.00
  0.9439000000D+01  0.3810902127D-01
  0.2002000000D+01  0.2094801169D+00
  0.5456000000D+00  0.5085572839D+00
  0.1517000000D+00  0.4688422617D+00
 p    4  1.00
  0.9439000000D+01  0.0000000000D+00
  0.2002000000D+01  0.0000000000D+00
  0.5456000000D+00  0.0000000000D+00
  0.1517000000D+00  0.1000000000D+01
 d    1  1.00
  0.5500000000D+00  0.1000000000D+01
  
   2 0
 s    4  1.00
  0.1301000000D+02  0.1968498999D-01
  0.1962000000D+01  0.1379769298D+00
  0.4446000000D+00  0.4781477569D+00
  0.1220000000D+00  0.5012397451D+00
 s    4  1.00
  0.1301000000D+02  0.0000000000D+00
  0.1962000000D+01  0.0000000000D+00
  0.4446000000D+00  0.0000000000D+00
  0.1220000000D+00  0.1000000000D+01
 p    1  1.00
  0.7270000000D+00  0.1000000000D+01
  
   3 0
 s    4  1.00
  0.1301000000D+02  0.1968498999D-01
  0.1962000000D+01  0.1379769298D+00
  0.4446000000D+00  0.4781477569D+00
  0.1220000000D+00  0.5012397451D+00
 s    4  1.00
  0.1301000000D+02  0.0000000000D+00
  0.1962000000D+01  0.0000000000D+00
  0.4446000000D+00  0.0000000000D+00
  0.1220000000D+00  0.1000000000D+01
 p    1  1.00
  0.7270000000D+00  0.1000000000D+01
  
   4 0
 s    4  1.00
  0.1301000000D+02  0.1968498999D-01
  0.1962000000D+01  0.1379769298D+00
  0.4446000000D+00  0.4781477569D+00
  0.1220000000D+00  0.5012397451D+00
 s    4  1.00
  0.1301000000D+02  0.0000000000D+00
  0.1962000000D+01  0.0000000000D+00
  0.4446000000D+00  0.0000000000D+00
  0.1220000000D+00  0.1000000000D+01
 p    1  1.00
  0.7270000000D+00  0.1000000000D+01
  
   5 0
 s    4  1.00
  0.1301000000D+02  0.1968498999D-01
  0.1962000000D+01  0.1379769298D+00
  0.4446000000D+00  0.4781477569D+00
  0.1220000000D+00  0.5012397451D+00
 s    4  1.00
  0.1301000000D+02  0.0000000000D+00
  0.1962000000D+01  0.0000000000D+00
  0.4446000000D+00  0.0000000000D+00
  0.1220000000D+00  0.1000000000D+01
 p    1  1.00
  0.7270000000D+00  0.1000000000D+01


[MO]
 Sym=      1.1
 Ene=     -11.2410
 Spin= Alpha
 Occup=    2.000000
1 1.00136311602123
2 0.007860175915351
3 -0.007938262914942
4 0.000000127723165
5 0.000000151995336
6 -0.000103110125174
7 0.000000125736778
8 0.000000514540598
9 -0.000011216652755
10 0.000370514464343
11 0.000372593548289
12 -0.000743108012632
13 0.000000144603125
14 0.000004694299480
15 0.000003106083874
16 -0.000642424985459
17 0.001551407385626
18 0.000044559127289
19 0.000508666099505
20 -0.000031331019503
21 -0.000640549360806
22 0.001550431922694
23 0.000418285952587
24 -0.000292224253718
25 -0.000031843367353
26 -0.000640984658590
27 0.001550994851611
28 -0.000462359584052
29 -0.000215419421581
30 -0.000034897081550
31 -0.000172041943944
32 0.000321903021111
33 -0.000000028638844
34 -0.000000018344420
35 -0.000090268308900
 Sym=      2.1
 Ene=      -0.9055
 Spin= Alpha
 Occup=    2.000000
1 -0.027464730082916
2 0.75858206215303
3 -0.14767665274973
4 0.000055892236565
5 0.000016618682865
6 -0.020346812876787
7 -0.000004339650041
8 0.000014471586014
9 0.004207310098892
10 0.001802440533560
11 0.001805644433530
12 -0.003608084967090
13 -0.000000259754010
14 0.000022514446996
15 0.000014804400935
16 0.35033826926928
17 -0.14627298362880
18 -0.002480763046444
19 -0.028409327388441
20 0.000381580034474
21 0.35029567268734
22 -0.14623583205349
23 -0.023357048961441
24 0.016353396197797
25 0.000413709136351
26 0.35032029212758
27 -0.14624005041070
28 0.025834652138657
29 0.012060250155712
30 0.000587593379433
31 0.007628337859386
32 0.000689139826476
33 0.000000269298266
34 0.000000195483584
35 -0.000637471715660
 Sym=      3.1
 Ene=      -0.5763
 Spin= Alpha
 Occup=    2.000000
1 -0.000003275727246
2 0.000076621968487
3 -0.000002027809642
4 0.029746556158343
5 0.64329068351507
6 0.001666381121398
7 -0.005657461099727
8 -0.12229639503894
9 -0.000320943413284
10 -0.020260292525961
11 0.020269920849649
12 -0.000009628323688
13 0.005116256756024
14 -0.000212171959191
15 -0.002908231990621
16 0.63675359669344
17 -0.18357663493164
18 -0.002482864226275
19 -0.022444632183301
20 0.000909502539285
21 -0.34094808394793
22 0.098292527290178
23 0.016067200975992
24 0.001870768214992
25 -0.000457788330594
26 -0.29588388369015
27 0.085296283784350
28 -0.014268182604490
29 0.005773741208386
30 -0.000492442828967
31 0.000033669736590
32 -0.000004790261600
33 0.000021231506956
34 0.000469474387814
35 -0.000001277021421
 Sym=      4.1
 Ene=      -0.5761
 Spin= Alpha
 Occup=    2.000000
1 -0.000001089902009
2 0.000024251958169
3 0.000008920783551
4 0.64327709946775
5 -0.029754028482967
6 0.002292045366247
7 -0.12219772283732
8 0.005649782174071
9 -0.000440899727863
10 -0.004411558832872
11 0.004428538736962
12 -0.000016979904089
13 -0.023410511046659
14 -0.003060139328537
15 0.000063798774331
16 0.026021267234170
17 -0.007498201494067
18 0.012584687958452
19 -0.002023423596767
20 0.000080904129304
21 0.53842437606084
22 -0.15516453752464
23 -0.011726276899533
24 0.016522570777510
25 0.000819708112858
26 -0.56445549144011
27 0.16265941726106
28 -0.015620887295395
29 -0.013815796190203
30 -0.000956745506055
31 0.000046032505878
32 -0.000007869431944
33 0.000468929069177
34 -0.000022167703344
35 -0.000001562629949
 Sym=      5.1
 Ene=      -0.2164
 Spin= Alpha
 Occup=    1.387466
1 0.000174828716181
2 0.002745229184229
3 0.008111975825123
4 -0.002257714050791
5 -0.001488045098185
6 0.57657278883891
7 -0.000245947867726
8 -0.000159624137706
9 0.069715273279193
10 -0.002546164987845
11 -0.002555468903411
12 0.005101633891256
13 0.000003755591461
14 -0.000023257627164
15 -0.000017455591494
16 -0.025440579659150
17 0.009370644232615
18 0.000042212964663
19 0.001030354147640
20 0.013392050237771
21 -0.025397997907497
22 0.009364948519273
23 0.000822453903045
24 -0.000644531500845
25 0.013385846731511
26 -0.025222139210084
27 0.009337426855568
28 -0.001007771814012
29 -0.000480038868645
30 0.013374161029247
31 0.65181456893651
32 0.038682463190788
33 0.000000715199185
34 0.000000454411806
35 0.000222775244442
 Sym=      6.1
 Ene=      -0.0599
 Spin= Alpha
 Occup=    0.612534
1 0.002969631004391
2 -0.044554177420804
3 -0.029427010334719
4 0.002431172667172
5 0.001602935307195
6 -0.68145841473335
7 0.000296351835404
8 0.000194380404713
9 -0.081408344907591
10 0.001500716951800
11 0.001496048094724
12 -0.002996765046524
13 0.000002455232501
14 0.000016435875556
15 0.000013335259434
16 0.004017013505346
17 -0.000342579868891
18 0.000089634808727
19 0.000479161904415
20 -0.014064540241749
21 0.004051043196515
22 -0.000346141860651
23 0.000415514655312
24 -0.000222399038504
25 -0.014059294717749
26 0.004260000020266
27 -0.000363645430058
28 -0.000342679144902
29 -0.000150568651101
30 -0.014056892353578
31 0.78387476019299
32 -0.049562668802549
33 0.000002608789508
34 0.000001667161079
35 0.001437633617401
 Sym=      7.1
 Ene=       0.2022
 Spin= Alpha
 Occup=    0.000000
1 0.081419598763869
2 -0.21260117701493
3 -2.09520303945935
4 -0.000021172208834
5 0.000041077644659
6 0.039375435797804
7 0.000102040856795
8 0.000282346816627
9 0.028444780038631
10 -0.013383728797050
11 -0.013411973564932
12 0.026795702361982
13 -0.000004569560464
14 -0.000178235198258
15 -0.000118872309689
16 0.058451099462445
17 1.01929128433675
18 -0.001574876029886
19 -0.017948375090525
20 0.002198171497442
21 0.058358537659964
22 1.01951400731197
23 -0.014764130226574
24 0.010314575411914
25 0.002217545154415
26 0.058229988946493
27 1.02024674313917
28 0.016318365025029
29 0.007605806951255
30 0.002329329206647
31 -0.095040966039928
32 0.021694804096715
33 0.000028372589404
34 0.000017903507516
35 -0.003318068106220
 Sym=      8.1
 Ene=       0.2690
 Spin= Alpha
 Occup=    0.000000
1 0.000015172294175
2 -0.000090392808219
3 -0.000538796735390
4 -0.041560664981188
5 -0.44327758141664
6 -0.001170179035282
7 -0.11621367329488
8 -1.23999917667390
9 -0.003526716580665
10 0.020566825372983
11 -0.020571720258771
12 0.000004894885788
13 -0.004033100873359
14 0.000464906372158
15 0.004054784839106
16 0.023027693672723
17 2.18993332707810
18 -0.002407678203724
19 -0.027302384383708
20 0.000296250899213
21 -0.011226321843610
22 -1.08259194352578
23 0.009245733380415
24 -0.010423524058283
25 -0.000167778223728
26 -0.011515929534305
27 -1.10688974609733
28 -0.011198018456992
29 -0.008769053226198
30 -0.000243921924169
31 -0.000227970597307
32 -0.000013261501651
33 0.000315573393072
34 0.003720351981498
35 -0.000004682957801
 Sym=      9.1
 Ene=       0.2690
 Spin= Alpha
 Occup=    0.000000
1 -0.000023300933053
2 0.000015898829006
3 0.000449214138683
4 0.44335320030382
5 -0.041561700871734
6 0.001463542472903
7 1.23942778920446
8 -0.11623460415386
9 0.004403003758894
10 -0.003457989228019
11 0.003478698235585
12 -0.000020709007566
13 -0.023731441009113
14 -0.004196582095633
15 0.000308754913564
16 0.000076364523244
17 0.013918796583402
18 0.003726624965834
19 -0.000500703536787
20 0.000009013935000
21 -0.020232497696589
22 -1.90301153018237
23 0.020572513340967
24 -0.012155803562748
25 -0.000279200339661
26 0.019997779591133
27 1.88858355716892
28 0.022220746293087
29 0.008296258531414
30 0.000414710305359
31 0.000303364413986
32 -0.000007152636743
33 -0.003659014173440
34 0.000376265386527
35 0.000006732831637
 Sym=     10.1
 Ene=       0.6114
 Spin= Alpha
 Occup=    0.000000
1 -0.000010655057686
2 -0.000016000115692
3 -0.000005095640876
4 -0.45082085245864
5 0.010086506088635
6 -0.001156357272913
7 1.67915181325279
8 -0.037561250835760
9 0.005469885858240
10 0.025028421498312
11 -0.025115396484634
12 0.000086974986321
13 0.11902164180829
14 0.007215794116595
15 0.000218879308782
16 -0.085652681803597
17 0.027459291261706
18 0.069376002079897
19 -0.006425441965488
20 0.000441597936667
21 -1.10049428210336
22 0.35182663689633
23 0.018435400144157
24 0.034335265816808
25 0.002378281467571
26 1.18566542707442
27 -0.37882320424184
28 0.008626036123939
29 -0.030068357798767
30 -0.002379700445273
31 -0.001461422719526
32 0.001098130676356
33 0.020687834191481
34 -0.000449205490597
35 -0.000198611650253
 Sym=     11.1
 Ene=       0.6116
 Spin= Alpha
 Occup=    0.000000
1 -0.000199277998402
2 -0.000476197186931
3 0.001232268910029
4 -0.010089804855336
5 -0.45095011529441
6 -0.000837031274397
7 0.037622902807323
8 1.68110036153318
9 0.003556379064171
10 0.10296861585689
11 -0.10328003870427
12 0.000311422847380
13 -0.029013296886416
14 0.000522644506142
15 0.006423952631929
16 -1.32128281366202
17 0.42062707696360
18 -0.005002358331612
19 -0.005174435268216
20 0.002637504470799
21 0.73266673796597
22 -0.23249260771649
23 0.035752917818213
24 0.045993873097810
25 -0.001199897818941
26 0.58456377193879
27 -0.18536802985770
28 -0.028588676999688
29 0.055841694336530
30 -0.001118147340244
31 -0.002955665648571
32 0.002859160450268
33 0.000476162467682
34 0.020666354582944
35 -0.000172122680685
 Sym=     12.1
 Ene=       0.6467
 Spin= Alpha
 Occup=    0.000000
1 -0.066058655277304
2 -0.11378630754608
3 0.49158977050103
4 0.001425221610598
5 0.001562940309226
6 -0.22532700691241
7 -0.001981535400334
8 -0.003875352080134
9 0.047968251719285
10 -0.070831781425478
11 -0.070654312315493
12 0.14148609374097
13 0.000051298277121
14 -0.000783553236982
15 -0.000529438086286
16 -0.53498686437309
17 0.28295085787811
18 -0.004958523525141
19 -0.056905043815030
20 -0.003175168731591
21 -0.53822851450883
22 0.28372759709990
23 -0.046817601278887
24 0.032669166087388
25 -0.003141746558579
26 -0.53957303440657
27 0.28451070844944
28 0.051700368599189
29 0.024023845395209
30 -0.003019728756754
31 -1.78798734284004
32 1.96326727587617
33 -0.000018663478917
34 -0.000043756585139
35 -0.015855106008424
 Sym=     13.1
 Ene=       0.7238
 Spin= Alpha
 Occup=    0.000000
1 0.061710525231119
2 0.047345964336085
3 -0.38185754985872
4 0.004381116608738
5 0.002636292577560
6 -1.19434883473859
7 -0.005012167682180
8 -0.002205799463971
9 1.43340462154210
10 0.072300433557393
11 0.072236508058023
12 -0.14453694161542
13 0.000037195703347
14 0.000959028598910
15 0.000638887874322
16 0.64191692164230
17 -0.45052922074652
18 0.005355899156422
19 0.059366293257711
20 -0.042163036635000
21 0.64302414563649
22 -0.45045593044337
23 0.048900992817010
24 -0.033934739825487
25 -0.042224299537014
26 0.64345956503097
27 -0.45062445849686
28 -0.053754631628068
29 -0.025008885485975
30 -0.042627091500958
31 -0.45509153180037
32 0.39874829511365
33 -0.000013951370260
34 0.000005806077285
35 -0.040857728425453
 Sym=     14.1
 Ene=       0.7955
 Spin= Alpha
 Occup=    0.000000
1 0.048528729155212
2 -0.039971013687370
3 -0.071133383829472
4 -0.002331649519477
5 -0.001782105613016
6 0.85040368689726
7 0.002591230221865
8 0.002680477325858
9 -1.14182216258868
10 0.093763964975702
11 0.093796725872609
12 -0.18756069084831
13 0.000067190202336
14 0.001422229772861
15 0.000945006159820
16 0.77632863455225
17 -0.70179172709346
18 0.007987674729198
19 0.092883813588601
20 0.031718208404378
21 0.77690609332078
22 -0.70137311724554
23 0.076308495776650
24 -0.053551617326040
25 0.031543543111040
26 0.77625036284109
27 -0.70134513075344
28 -0.084871786524637
29 -0.039597394057911
30 0.030672495619588
31 -1.09437191573349
32 1.43296503216218
33 -0.000104294472910
34 -0.000058564438850
35 0.12101460138188
 Sym=     15.1
 Ene=       0.8988
 Spin= Alpha
 Occup=    0.000000
1 -0.000040719497237
2 -0.000293509717556
3 0.000459909340008
4 -1.24169962873702
5 0.040698122589822
6 -0.004179819938079
7 2.30760144582110
8 -0.075638764825945
9 0.007872087765733
10 -0.067042592801382
11 0.067264770973370
12 -0.000222178171988
13 -0.33385900304447
14 -0.024333283091854
15 -0.000288822626234
16 0.032687957933208
17 -0.10994431125599
18 -0.069533357949798
19 0.021852446716461
20 -0.000909897124341
21 0.50031027089601
22 -1.69145023223443
23 0.17587462467504
24 -0.17074862499864
25 -0.010737658928239
26 -0.53214807916279
27 1.80031465870118
28 0.21968272763432
29 0.13820883480531
30 0.012853508211119
31 -0.001030878448660
32 0.001229175228850
33 0.004712164331111
34 -0.000049364468354
35 -0.000072957323268
 Sym=     16.1
 Ene=       0.8989
 Spin= Alpha
 Occup=    0.000000
1 0.000028683177031
2 0.000051687896529
3 -0.000032794573259
4 -0.040669527645561
5 -1.24162038085288
6 -0.002989231063263
7 0.075590673976831
8 2.30788525602738
9 0.005623765388909
10 -0.28907097865235
11 0.28918075349609
12 -0.000109774843741
13 0.077682907940484
14 -0.001811490907401
15 -0.022138941540245
16 0.59632796510178
17 -2.01630100572392
18 0.028961130478311
19 0.28705758429826
20 -0.012270989771603
21 -0.32620175086223
22 1.10301366444672
23 -0.16356802896539
24 0.041553589854163
25 0.006655410392833
26 -0.27006697397522
27 0.91319389708293
28 0.14528966889245
29 -0.002425396259979
30 0.006464255007708
31 -0.000615165576603
32 0.000727341649572
33 0.000252024319961
34 0.004486827192389
35 -0.000059085707323
 Sym=     17.1
 Ene=       1.0642
 Spin= Alpha
 Occup=    0.000000
1 -0.78925589439928
2 -3.58808751398085
3 6.07783284117606
4 0.000154440252247
5 0.000167369216413
6 -0.000397902350158
7 -0.000215219910711
8 -0.000494430621870
9 -0.039776614558408
10 0.023592838261628
11 0.023975111646819
12 -0.047567949908447
13 0.000045185511234
14 0.000225243593010
15 0.000134925519941
16 -0.16574520190251
17 -0.85780658430002
18 0.016301530648756
19 0.18618887018820
20 -0.015444912320064
21 -0.16586535277206
22 -0.85768976906878
23 0.15304493261822
24 -0.10709119523957
25 -0.015610919923996
26 -0.16571094674813
27 -0.85825786983585
28 -0.16920524943877
29 -0.078979636347184
30 -0.016618768362007
31 0.12432019686962
32 -0.19257358228466
33 -0.000119873628824
34 -0.000081086999252
35 -0.13211547419026
 Sym=     18.1
 Ene=       1.2129
 Spin= Alpha
 Occup=    0.000000
1 -0.000070366155519
2 -0.000273016768048
3 0.000442695193103
4 0.000320150687392
5 0.009575583921588
6 -0.000098590654458
7 0.000729233468895
8 0.022741287963937
9 0.000345401467512
10 -0.036153712678712
11 0.033322481988297
12 0.002831230690416
13 0.007290196617612
14 0.020315956022458
15 0.62456147478426
16 -0.026026516530295
17 0.006507916297179
18 0.001334745556307
19 0.008579879418602
20 0.40977221020743
21 0.013987926288881
22 -0.003378096219800
23 -0.021399968619211
24 -0.021842020499366
25 -0.22440058454381
26 0.011561794533255
27 -0.002805550570060
28 0.018723945318656
29 -0.027665567835619
30 -0.18568303655227
31 0.000952747599556
32 -0.001239246383830
33 0.000379494368998
34 0.011844228268050
35 -0.000363978756873
 Sym=     19.1
 Ene=       1.2130
 Spin= Alpha
 Occup=    0.000000
1 -0.000080919549587
2 -0.000306707207829
3 0.000503824178424
4 0.009572083678516
5 -0.000307228511510
6 -0.000133694589681
7 0.022679055989617
8 -0.000758715124038
9 0.000422497846895
10 -0.012400741127951
11 0.008435188059281
12 0.003965553068669
13 -0.042990973408547
14 0.62438054113139
15 -0.020602636329888
16 -0.001622538810133
17 0.000527073696640
18 -0.036938301742286
19 0.003696440881666
20 0.022136300417288
21 -0.021878528063791
22 0.005534393686746
23 -0.006161581956670
24 -0.022147597072500
25 0.34368253400449
26 0.022861833576882
27 -0.005578333307881
28 0.002199686662677
29 0.019790132362497
30 -0.36601005328155
31 0.001341060882499
32 -0.001733668494978
33 0.011828739836215
34 -0.000396101762732
35 -0.000484630733620
 Sym=     20.1
 Ene=       1.5200
 Spin= Alpha
 Occup=    0.000000
1 -0.000182048436968
2 -0.000799968531211
3 0.001512191407218
4 0.033151726656226
5 0.019562886655561
6 0.000360837450640