
 Working directory              : /scratch/cc//molpro.OOuloMmvkx/
 Global scratch directory       : /scratch/cc//molpro.OOuloMmvkx/
 Wavefunction directory         : /home/chimica2/cavallotti/wfu/
 Main file repository           : /scratch/cc//molpro.OOuloMmvkx/

 id        : polimi

 Nodes     nprocs
 node-6-11    1
 Distribution of processes:   nprocs(total)=    2   nprocs(compute)=    1   nprocs(helper)=    1
 GA implementation: MPI file
 GA implementation (serial work in mppx): MPI file

 Using customized tuning parameters: mindgm=1; mindgv=20; mindgc=4; mindgr=1; noblas=0; minvec=7
 default implementation of scratch files=df  


 Variables initialized (1009), CPU time= 0.01 sec
  memory,         400 ,m
 
 symmetry, nosym; orient, noorient
 angstrom
 geomtyp=xyz
 geometry={
 5
 rotational dynamics
 C, 0.0622187, -0.102219, 0.0972198
 H, -0.387032, -0.435859, -0.824395
 H, 1.12077, -0.229794, 0.257571
 H, -0.546185, 0.361625, 0.856966
 H, -0.92838, 1.52113, -1.44772
 }
 
  basis=cc-pvdz
  {multi;closed, 4;occ, 6;wf, 10,1,0,;state,1;maxiter,40}
  if (iterations.ge.0) then
     {rs2,shift=0.2;orbital,IGNORE_ERROR;state,1}
     molpro_energy = energy +   40.192865169999997
  else
     molpro_energy = 10.0
  endif
 Commands initialized (810), CPU time= 0.01 sec, 661 directives.
 Default parameters read. Elapsed time= 0.16 sec

 Checking input...
 Passed
1


                                         ***  PROGRAM SYSTEM MOLPRO  ***
                                       Copyright, TTI GmbH Stuttgart, 2015
                                    Version 2021.2 linked Jun  2 2021 16:00:59


 **********************************************************************************************************************************
 LABEL *                                                                                 
  64 bit serial version                                                                  DATE: 03-Jun-23          TIME: 09:11:57  
 **********************************************************************************************************************************

 SHA1:             1987c3f1b0c3ae76932bc24993909f2d7ae6b1f1
 **********************************************************************************************************************************

 Memory per process:       400 MW
 Total memory per node:    400 MW

 GA preallocation disabled
 GA check disabled

 Variable memory set to 400.0 MW

 SETTING GEOMTYP        =    XYZ
 ZSYMEL=NOSYM
 ZUNIT=ANG

 SETTING BASIS          =    CC-PVDZ


 Recomputing integrals since basis changed


 Using spherical harmonics

 Library entry C      S cc-pVDZ              selected for orbital group  1
 Library entry C      P cc-pVDZ              selected for orbital group  1
 Library entry C      D cc-pVDZ              selected for orbital group  1
 Library entry H      S cc-pVDZ              selected for orbital group  2
 Library entry H      P cc-pVDZ              selected for orbital group  2


 PROGRAM * SEWARD (Integral evaluation for generally contracted gaussian basis sets)     Author: Roland Lindh, 1990

 Geometry written to block  1 of record 700


 Point group  C1  



 ATOMIC COORDINATES

 NR  ATOM    CHARGE       X              Y              Z

   1  C       6.00    0.117576303   -0.193165915    0.183718796
   2  H       1.00   -0.731384481   -0.823654139   -1.557880769
   3  H       1.00    2.117948349   -0.434247725    0.486738648
   4  H       1.00   -1.032140063    0.683372210    1.619431038
   5  H       1.00   -1.754383940    2.874519100   -2.735794305

 Bond lengths in Bohr (Angstrom)

 1-2  2.037503094  1-3  2.037505777  1-4  2.037507411
     ( 1.078200204)     ( 1.078201624)     ( 1.078202489)

 Bond angles

  2-1-3  119.97235801   2-1-4  120.02079695   3-1-4  120.00656618

 NUCLEAR CHARGE:                   10
 NUMBER OF PRIMITIVE AOS:          55
 NUMBER OF SYMMETRY AOS:           54
 NUMBER OF CONTRACTIONS:           34   (   34A   )
 NUMBER OF INNER CORE ORBITALS:     0   (    0A   )
 NUMBER OF OUTER CORE ORBITALS:     1   (    1A   )
 NUMBER OF VALENCE ORBITALS:        8   (    8A   )


 NUCLEAR REPULSION ENERGY   11.59821870

 Eigenvalues of metric

         1 0.150E-01 0.346E-01 0.352E-01 0.419E-01 0.527E-01 0.536E-01 0.781E-01 0.119E+00


 Contracted 2-electron integrals neglected if value below      1.0D-11
 AO integral compression algorithm  1   Integral accuracy      1.0D-11

     1.311 MB (compressed) written to integral file ( 60.9%)


 NUMBER OF SORTED TWO-ELECTRON INTEGRALS:     177310.     BUFFER LENGTH:  32768
 NUMBER OF SEGMENTS:   1  SEGMENT LENGTH:     177310      RECORD LENGTH: 524288

 Memory used in sort:       0.73 MW

 SORT1 READ      219389. AND WROTE      172173. INTEGRALS IN      1 RECORDS. CPU TIME:     0.00 SEC, REAL TIME:     0.01 SEC
 SORT2 READ      172173. AND WROTE      177310. INTEGRALS IN      5 RECORDS. CPU TIME:     0.02 SEC, REAL TIME:     0.03 SEC

 FILE SIZES:   FILE 1:    31.4 MBYTE,  FILE 4:     4.2 MBYTE,   TOTAL:     35.6 MBYTE

 OPERATOR DM      FOR CENTER  0  COORDINATES:    0.000000    0.000000    0.000000


 **********************************************************************************************************************************
 DATASETS  * FILE   NREC   LENGTH (MB)   RECORD NAMES
              1      19       29.48       500      610      700      900      950      970     1000      129      960     1100   
                                          VAR    BASINP    GEOM    SYMINP    ZMAT    AOBASIS   BASIS     P2S    ABASIS      S 
                                         1400     1410     1200     1210     1080     1600     1650     1300     1700   
                                           T        V       H0       H01     AOSYM     SMH    MOLCAS    ERIS     OPER   

 PROGRAMS   *        TOTAL       INT
 CPU TIMES  *         0.42      0.25
 REAL TIME  *         0.88 SEC
 DISK USED  *        34.26 MB
 **********************************************************************************************************************************

 PROGRAM * MULTI (Direct Multiconfiguration SCF)       Authors: P.J. Knowles, H.-J. Werner (1984)
                                                                D.A. Kreplin, P.J. Knowles, H.-J. Werner (2019)

 Number of closed-shell orbitals:   4 (   4 )
 Number of active  orbitals:        2 (   2 )
 Number of external orbitals:      28 (  28 )

 State symmetry 1

 Number of active electrons:   2    Spin symmetry=Singlet   Space symmetry=1
 Number of states:             1
 Number of CSFs:               3   (4 determinants, 4 intermediate states)

 Orbital guess generated from atomic densities. Full valence occupancy:    9

 Wavefunction dump at record             2140.2

 Convergence thresholds  0.10E-04 (gradient)  0.10E-05 (energy)
 
 Number of orbital rotations:  176  ( 8 closed/active, 112 closed/virtual, 0 active/active, 56 active/virtual )
 Total number of variables:    180
 
  Second-order MCSCF: L-BFGS accelerated
 
 ITER  MIC  NCI  NEG     ENERGY(VAR)    ENERGY(PROJ) ENERGY CHANGE       GRAD(0)  GRAD(ORB)   GRAD(CI)      STEP      TIME
   1    6    5    0    -40.04839523     -40.06688391   -0.01848868    0.14421866 0.00023838 0.00000000  0.16E+00      0.10
   2    9    8    0    -40.06676568     -40.06677247   -0.00000679    0.00279732 0.00000004 0.00000000  0.31E-02      0.25
   3    5    5    0    -40.06677247     -40.06677247   -0.00000000    0.00000207 0.00000000 0.00000000  0.42E-05      0.33

 CONVERGENCE REACHED!  Final gradient:    0.00000000 ( 0.14E-10)
                       Final energy:    -40.06677247
 
 First order charge density matrix for state 1.1 saved on record 2140.2 (density set 1)
 
 Results for state 1.1
 =====================
 !MCSCF STATE 1.1 Energy                       -40.066772471574
 Nuclear energy                                 11.59821870
 Kinetic energy                                 39.95081990
 One electron energy                           -75.85457621
 Two electron energy                            24.18958504
 Virial ratio                                    2.00290238
 
 !MCSCF STATE 1.1 Dipole moment                  0.04867293    -0.13002687     0.09939918
 Dipole moment /Debye                            0.12371425    -0.33049533     0.25264752
 
 No non-zero expectation values
 
 
 Natural orbital dump at molpro section 2140.2 (Orbital set 2)


 **********************************************************************************************************************************
 DATASETS  * FILE   NREC   LENGTH (MB)   RECORD NAMES
              1      20       29.78       500      610      700      900      950      970     1000      129      960     1100   
                                          VAR    BASINP    GEOM    SYMINP    ZMAT    AOBASIS   BASIS     P2S    ABASIS      S 
                                         1400     1410     1200     1210     1080     1600     1650     1300     1700     1380   
                                           T        V       H0       H01     AOSYM     SMH    MOLCAS    ERIS     OPER     JKOP   

              2       4        2.72       700     1000      520     2140   
                                         GEOM     BASIS   MCVARS    MCSCF   

 PROGRAMS   *        TOTAL     MULTI       INT
 CPU TIMES  *         0.67      0.25      0.25
 REAL TIME  *         1.33 SEC
 DISK USED  *        34.26 MB
 **********************************************************************************************************************************


 PROGRAM * RS2 (Multireference RS Perturbation Theory)     Authors: H.-J. Werner (1993), P. Celani (1998)


 Level shift= 0.20

 Convergence thresholds:  THRVAR = 1.00D-08  THRDEN = 1.00D-06

 Number of optimized states: 1  Roots:    1
 Number of reference states: 1  Roots:    1

 Reference symmetry:                   1   Singlet 
 Number of electrons:                 10
 Maximum number of shells:             4
 Maximum number of spin couplings:     5

 Reference space:        3 conf        3 CSFs
 N elec internal:       15 conf       15 CSFs
 N-1 el internal:       23 conf       32 CSFs
 N-2 el internal:       25 conf       52 CSFs

 Number of electrons in valence space:                      8
 Maximum number of open shell orbitals in reference space:  2
 Maximum number of open shell orbitals in internal spaces:  6


 Number of core orbitals:           1 (   1 )
 Number of closed-shell orbitals:   3 (   3 )
 Number of active  orbitals:        2 (   2 )
 Number of external orbitals:      28 (  28 )

 Molecular orbitals read from record     2140.2  Type=MCSCF/NATURAL (state 1.1)

 Integral transformation finished. Total CPU:   0.01 sec, npass=  1  Memory used:   0.11 MW


 Number of p-space configurations:   3

 Reference wavefunction optimized for reference space (refopt=1)

 State     Reference Energy 
     1       -40.06677247

 Number of blocks in overlap matrix:     2   Smallest eigenvalue:  0.10D+01
 Number of N-2 electron functions:      22
 Number of N-1 electron functions:      32

 Number of internal configurations:                   15
 Number of singly external configurations:           896
 Number of doubly external configurations:          8680
 Total number of contracted configurations:         9591
 Total number of uncontracted configurations:      21351

 Weight factors for SA-density in H0:    1.000000

 FIMAX=  0.29D-01  FXMAX=  0.43D-13  DIAG=  F  T  NOREF=1  NOINT=0  IHPPD=2

 Nuclear energy:                      11.59821870
 Core energy:                        -35.73531695
 Zeroth-order valence energy:         -4.49787209
 Zeroth-order total energy:          -28.63497033
 First-order energy:                 -11.43180214

 Using uncontracted singles

 Diagonal Coupling coefficients finished.               Storage:     883 words, CPU-Time:      0.00 seconds.
 Energy denominators for pairs finished in 0 passes.    Storage:    2295 words, CPU-time:      0.00 seconds.

 A level shift of 0.20 is applied.

  ITER. STATE  ROOT     SQ.NORM     CORR.ENERGY   TOTAL ENERGY   ENERGY CHANGE       DEN1      VAR(S)    VAR(P)      TIME
    1     1     1     1.00691387    -0.00138277   -40.06815525    -0.00138277    -0.12761821  0.69D-02  0.35D-01     0.01
    2     1     1     1.04249815    -0.13629566   -40.20306813    -0.13491289    -0.00003824  0.23D-04  0.16D-04     0.02
    3     1     1     1.04253742    -0.13637236   -40.20314484    -0.00007670    -0.00004684  0.23D-06  0.49D-07     0.02
    4     1     1     1.04255697    -0.13637671   -40.20314918    -0.00000434    -0.00000116  0.17D-08  0.10D-08     0.02
    5     1     1     1.04255757    -0.13637683   -40.20314930    -0.00000012    -0.00000032  0.30D-10  0.65D-11     0.03
    6     1     1     1.04255770    -0.13637686   -40.20314933    -0.00000003    -0.00000002  0.34D-12  0.15D-12     0.03

 Energies without level shift correction:

    6     1     1     1.04255770    -0.12786532   -40.19463779

 Energy contributions for state 1.1:
 ===================================

            Energy contr.      SQ.Norm of FOWF
 Space I     -0.00022828          0.00014036
 Space S     -0.01434507          0.00705640
 Space P     -0.11329196          0.03536094


 =====================================
 Analysis of CPU times by interactions
 =====================================

       I      S      P

 I   0.0%
 S   0.0%   0.0%
 P   0.0%   0.0%   0.0%

 Initialization:  33.3%
 Other:           66.7%

 Total CPU:        0.0 seconds
 =====================================



 gnormi=  1.00014036  gnorms=  0.00705640  gnormp=  0.03536094  gnorm=  1.04255770
 ecorri= -0.00022828  ecorrs= -0.01434507  ecorrp= -0.11329196  ecorr= -0.13637686

 Reference coefficients greater than 0.0500000
 =============================================
 22220           0.8585468
 22202          -0.5127351


 RESULTS FOR STATE 1.1
 =====================

 Coefficient of reference function:   C(0) = 1.00000000 (fixed)   1.00000000 (relaxed)

 Energy contributions of configuration classes

 CLASS          SQ.NORM        ECORR1        ECORR2
 +++++++++++++++++++++++++++++++++++++++++++++++++++
 Internals    0.00014036   -0.00022828    0.13588990
 Singles      0.00705640   -0.01434507   -0.03059995
 Pairs        0.03536094   -0.11329196   -0.24166681
 Total        1.04255770   -0.12786531   -0.13637686
 +++++++++++++++++++++++++++++++++++++++++++++++++++


 Reference energy                     -40.06677247
 Nuclear energy                        11.59821870
 Kinetic energy                        40.04896620
 One electron energy                  -75.79735990
 Two electron energy                   23.99599187
 Virial quotient                       -1.00384987
 Correlation energy                    -0.13637686
 !RSPT2 STATE 1.1 Energy              -40.203149329314

 Properties without orbital relaxation:

 !RSPT2 STATE 1.1 Dipole moment         0.04858366    -0.13256792     0.10085884
 Dipole moment /Debye                   0.12348734    -0.33695404     0.25635760


 **********************************************************************************************************************************
 DATASETS  * FILE   NREC   LENGTH (MB)   RECORD NAMES
              1      20       29.78       500      610      700      900      950      970     1000      129      960     1100   
                                          VAR    BASINP    GEOM    SYMINP    ZMAT    AOBASIS   BASIS     P2S    ABASIS      S 
                                         1400     1410     1200     1210     1080     1600     1650     1300     1700     1380   
                                           T        V       H0       H01     AOSYM     SMH    MOLCAS    ERIS     OPER     JKOP   

              2       4        2.72       700     1000      520     2140   
                                         GEOM     BASIS   MCVARS    MCSCF   

 PROGRAMS   *        TOTAL       RS2     MULTI       INT
 CPU TIMES  *         0.74      0.07      0.25      0.25
 REAL TIME  *         1.47 SEC
 DISK USED  *        34.26 MB
 **********************************************************************************************************************************
 SETTING MOLPRO_ENERGY  =        -0.01028416  AU                              

 RS2/cc-pVDZ energy=    -40.203149329314

             RS2           MULTI
    -40.20314933    -40.06677247
 **********************************************************************************************************************************
 Molpro calculation terminated
