 Entering Gaussian System, Link 0=g09
 Input=geom.com
 Output=geom.log
 Initial command:
 /software/cinetica/g09d1/g09d01/d01/build-node-6-2-59348/src/main/l1.exe "/scratch/cc/139125/Gau-50219.inp" -scrdir="/scratch/cc/139125/"
 Entering Link 1 = /software/cinetica/g09d1/g09d01/d01/build-node-6-2-59348/src/main/l1.exe PID=     50220.
  
 Copyright (c) 1988,1990,1992,1993,1995,1998,2003,2009,2013,
            Gaussian, Inc.  All Rights Reserved.
  
 This is part of the Gaussian(R) 09 program.  It is based on
 the Gaussian(R) 03 system (copyright 2003, Gaussian, Inc.),
 the Gaussian(R) 98 system (copyright 1998, Gaussian, Inc.),
 the Gaussian(R) 94 system (copyright 1995, Gaussian, Inc.),
 the Gaussian 92(TM) system (copyright 1992, Gaussian, Inc.),
 the Gaussian 90(TM) system (copyright 1990, Gaussian, Inc.),
 the Gaussian 88(TM) system (copyright 1988, Gaussian, Inc.),
 the Gaussian 86(TM) system (copyright 1986, Carnegie Mellon
 University), and the Gaussian 82(TM) system (copyright 1983,
 Carnegie Mellon University). Gaussian is a federally registered
 trademark of Gaussian, Inc.
  
 This software contains proprietary and confidential information,
 including trade secrets, belonging to Gaussian, Inc.
  
 This software is provided under written license and may be
 used, copied, transmitted, or stored only in accord with that
 written license.
  
 The following legend is applicable only to US Government
 contracts under FAR:
  
                    RESTRICTED RIGHTS LEGEND
  
 Use, reproduction and disclosure by the US Government is
 subject to restrictions as set forth in subparagraphs (a)
 and (c) of the Commercial Computer Software - Restricted
 Rights clause in FAR 52.227-19.
  
 Gaussian, Inc.
 340 Quinnipiac St., Bldg. 40, Wallingford CT 06492
  
  
 ---------------------------------------------------------------
 Warning -- This program may not be used in any manner that
 competes with the business of Gaussian, Inc. or will provide
 assistance to any competitor of Gaussian, Inc.  The licensee
 of this program is prohibited from giving any competitor of
 Gaussian, Inc. access to this program.  By using this program,
 the user acknowledges that Gaussian, Inc. is engaged in the
 business of creating and licensing software in the field of
 computational chemistry and represents and warrants to the
 licensee that it is not a competitor of Gaussian, Inc. and that
 it will not use this program in any manner prohibited above.
 ---------------------------------------------------------------
  

 Cite this work as:
 Gaussian 09, Revision D.01,
 M. J. Frisch, G. W. Trucks, H. B. Schlegel, G. E. Scuseria, 
 M. A. Robb, J. R. Cheeseman, G. Scalmani, V. Barone, B. Mennucci, 
 G. A. Petersson, H. Nakatsuji, M. Caricato, X. Li, H. P. Hratchian, 
 A. F. Izmaylov, J. Bloino, G. Zheng, J. L. Sonnenberg, M. Hada, 
 M. Ehara, K. Toyota, R. Fukuda, J. Hasegawa, M. Ishida, T. Nakajima, 
 Y. Honda, O. Kitao, H. Nakai, T. Vreven, J. A. Montgomery, Jr., 
 J. E. Peralta, F. Ogliaro, M. Bearpark, J. J. Heyd, E. Brothers, 
 K. N. Kudin, V. N. Staroverov, T. Keith, R. Kobayashi, J. Normand, 
 K. Raghavachari, A. Rendell, J. C. Burant, S. S. Iyengar, J. Tomasi, 
 M. Cossi, N. Rega, J. M. Millam, M. Klene, J. E. Knox, J. B. Cross, 
 V. Bakken, C. Adamo, J. Jaramillo, R. Gomperts, R. E. Stratmann, 
 O. Yazyev, A. J. Austin, R. Cammi, C. Pomelli, J. W. Ochterski, 
 R. L. Martin, K. Morokuma, V. G. Zakrzewski, G. A. Voth, 
 P. Salvador, J. J. Dannenberg, S. Dapprich, A. D. Daniels, 
 O. Farkas, J. B. Foresman, J. V. Ortiz, J. Cioslowski, 
 and D. J. Fox, Gaussian, Inc., Wallingford CT, 2013.
 
 ******************************************
 Gaussian 09:  EM64L-G09RevD.01 24-Apr-2013
                27-May-2023 
 ******************************************
 %mem=400MW
 %chk=tmp
 %NProcShared= 32
 Will use up to   32 processors via shared memory.
 ----------------------------------------------------------------------
 # uwb97xd/aug-cc-pvtz opt=(noeig,intern,maxcyc=50) # int=ultrafine nos
 ym freq iop(7/33=1) guess=(mix,always)
 ----------------------------------------------------------------------
 1/6=50,10=7,11=1,14=-1,18=40,26=4,38=1/1,3;
 2/12=2,15=1,17=6,18=5,29=3,40=1/2;
 3/5=16,6=1,7=10,11=2,16=1,25=1,30=1,71=1,74=-58,75=-5,116=2/1,2,3;
 4/13=-1/1;
 5/5=2,38=5/2;
 6/7=2,8=2,9=2,10=2,28=1/1;
 7/29=1,30=1,33=1/1,2,3,16;
 1/6=50,10=7,11=1,14=-1,18=40,26=4/3(2);
 2/15=1,29=3/2;
 99//99;
 2/15=1,29=3/2;
 3/5=16,6=1,7=10,11=2,16=1,25=1,30=1,71=1,74=-58,75=-5,116=2/1,2,3;
 4/13=-1/1;
 5/5=2,38=5/2;
 7/30=1,33=1/1,2,3,16;
 1/6=50,11=1,14=-1,18=40,26=4/3(-5);
 2/15=1,29=3/2;
 6/7=2,8=2,9=2,10=2,19=2,28=1/1;
 99/9=1/99;
 ------
 geom 0
 ------
 Symbolic Z-matrix:
 Charge =  0 Multiplicity = 1
 C1
 H2                   C1   R1
 H3                   C1   R2       H2   A2
 H4                   C1   R3       H2   A3       H3   D3       0
 C21                  C1   BB       H2   ANG1     H3   DH1      0
 H22                  C21  R21      C1   ANG2     H2   DH2      0
 H23                  C21  R22      H22  A22      C1   DH3      0
 H24                  C21  R23      H22  A23      H23  D23      0
       Variables:
  R1                    1.0834                   
  R2                    1.0835                   
  R3                    1.0835                   
  A2                  112.8034                   
  A3                  112.8036                   
  D3                  230.784                    
  R21                   1.0834                   
  R22                   1.0835                   
  R23                   1.0835                   
  A22                 112.8017                   
  A23                 112.8053                   
  D23                 129.2159                   
  ANG2                105.9023                   
  DH3                 115.383                    
  DH2                  60.0096                   
  DH1                 115.3954                   
  ANG1                105.8979                   
       Constants:
  BB                    3.6                      
 

 GradGradGradGradGradGradGradGradGradGradGradGradGradGradGradGradGradGrad
 Berny optimization.
 Initialization pass.
                       ----------------------------
                       !    Initial Parameters    !
                       ! (Angstroms and Degrees)  !
 ----------------------                            ----------------------
 !      Name          Value   Derivative information (Atomic Units)     !
 ------------------------------------------------------------------------
 !       R1          1.0834   estimate D2E/DX2                          !
 !       R2          1.0835   estimate D2E/DX2                          !
 !       R3          1.0835   estimate D2E/DX2                          !
 !       A2        112.8034   estimate D2E/DX2                          !
 !       A3        112.8036   estimate D2E/DX2                          !
 !       D3        230.784    estimate D2E/DX2                          !
 !       R21         1.0834   estimate D2E/DX2                          !
 !       R22         1.0835   estimate D2E/DX2                          !
 !       R23         1.0835   estimate D2E/DX2                          !
 !       A22       112.8017   estimate D2E/DX2                          !
 !       A23       112.8053   estimate D2E/DX2                          !
 !       D23       129.2159   estimate D2E/DX2                          !
 !      ANG2       105.9023   estimate D2E/DX2                          !
 !       DH3       115.383    estimate D2E/DX2                          !
 !       DH2        60.0096   estimate D2E/DX2                          !
 !       DH1       115.3954   estimate D2E/DX2                          !
 !      ANG1       105.8979   estimate D2E/DX2                          !
 !       BB          3.6      Frozen                                    !
 ------------------------------------------------------------------------
 Trust Radius=3.00D-01 FncErr=1.00D-07 GrdErr=1.00D-06
 Number of steps in this run=     50 maximum allowed number of steps=    100.
 GradGradGradGradGradGradGradGradGradGradGradGradGradGradGradGradGradGrad

 ---------------------------------------------------------------------------------------------------
                            Z-MATRIX (ANGSTROMS AND DEGREES)
   CD    Cent   Atom    N1       Length/X        N2       Alpha/Y        N3        Beta/Z          J
 ---------------------------------------------------------------------------------------------------
      1      1  C 
      2      2  H        1   1.083400(     1)
      3      3  H        1   1.083500(     2)      2  112.803(     8)
      4      4  H        1   1.083500(     3)      2  112.804(     9)      3  230.784(    14)      0
      5      5  C        1   3.600000(     4)      2  105.898(    10)      3  115.395(    15)      0
      6      6  H        5   1.083400(     5)      1  105.902(    11)      2   60.010(    16)      0
      7      7  H        5   1.083500(     6)      6  112.802(    12)      1  115.383(    17)      0
      8      8  H        5   1.083500(     7)      6  112.805(    13)      7  129.216(    18)      0
 ---------------------------------------------------------------------------------------------------
                         Z-Matrix orientation:                         
 ---------------------------------------------------------------------
 Center     Atomic      Atomic             Coordinates (Angstroms)
 Number     Number       Type             X           Y           Z
 ---------------------------------------------------------------------
      1          6           0        0.000000    0.000000    0.000000
      2          1           0        0.000000    0.000000    1.083400
      3          1           0        0.998814    0.000000   -0.419932
      4          1           0       -0.631495    0.773848   -0.419936
      5          6           0       -1.484853   -3.127741   -0.986126
      6          1           0       -2.483705   -3.127508   -0.566543
      7          1           0       -0.853216   -3.901509   -0.566257
      8          1           0       -1.484481   -3.128120   -2.069626
 ---------------------------------------------------------------------
                    Distance matrix (angstroms):
                    1          2          3          4          5
     1  C    0.000000
     2  H    1.083400   0.000000
     3  H    1.083500   1.804893   0.000000
     4  H    1.083500   1.804895   1.804646   0.000000
     5  C    3.600000   4.033670   4.033850   4.033756   0.000000
     6  H    4.033741   4.321159   4.683027   4.321198   1.083400
     7  H    4.033658   4.321009   4.321250   4.682898   1.083500
     8  H    4.033878   4.682990   4.321270   4.321390   1.083500
                    6          7          8
     6  H    0.000000
     7  H    1.804875   0.000000
     8  H    1.804912   1.804645   0.000000
 Symmetry turned off by external request.
 Stoichiometry    C2H6
 Framework group  C1[X(C2H6)]
 Deg. of freedom    18
 Full point group                 C1      NOp   1
 Rotational constants (GHZ):     76.9730380      4.6955403      4.6955112
 Standard basis: Aug-CC-pVTZ (5D, 7F)
   230 basis functions,   306 primitive gaussians,   260 cartesian basis functions
     9 alpha electrons        9 beta electrons
       nuclear repulsion energy        30.4302951755 Hartrees.
 NAtoms=    8 NActive=    8 NUniq=    8 SFac= 1.00D+00 NAtFMM=   60 NAOKFM=F Big=F
 Integral buffers will be    131072 words long.
 Raffenetti 2 integral format.
 Two-electron integral symmetry is turned off.
 Nuclear repulsion after empirical dispersion term =       30.4293312893 Hartrees.
 One-electron integrals computed using PRISM.
 NBasis=   230 RedAO= T EigKep=  1.15D-04  NBF=   230
 NBsUse=   230 1.00D-06 EigRej= -1.00D+00 NBFU=   230
 ExpMin= 2.53D-02 ExpMax= 8.24D+03 ExpMxC= 2.81D+02 IAcc=3 IRadAn=         5 AccDes= 0.00D+00
 Harris functional with IExCor= 4639 and IRadAn=       5 diagonalized for initial guess.
 HarFok:  IExCor= 4639 AccDes= 0.00D+00 IRadAn=         5 IDoV= 1 UseB2=F ITyADJ=14
 ICtDFT=  3500011 ScaDFX=  1.000000  1.000000  1.000000  1.000000
 FoFCou: FMM=F IPFlag=           0 FMFlag=      100000 FMFlg1=           0
         NFxFlg=           0 DoJE=T BraDBF=F KetDBF=T FulRan=T
         wScrn=  0.000000 ICntrl=     500 IOpCl=  0 I1Cent=   200000004 NGrid=           0
         NMat0=    1 NMatS0=      1 NMatT0=    0 NMatD0=    1 NMtDS0=    0 NMtDT0=    0
 Symmetry not used in FoFCou.
 Mixing orbitals, IMix= 1 IMixAn=  0 NRI=1 NE=    9 Coef=  7.07106781D-01  7.07106781D-01
 Mixing orbitals, IMix= 1 IMixAn=  0 NRI=1 NE=    9 Coef= -7.07106781D-01  7.07106781D-01
 Initial guess <Sx>= 0.0000 <Sy>= 0.0000 <Sz>= 0.0000 <S**2>= 1.0000 S= 0.6180
 Requested convergence on RMS density matrix=1.00D-08 within 128 cycles.
 Requested convergence on MAX density matrix=1.00D-06.
 Requested convergence on             energy=1.00D-06.
 No special actions if energy rises.
 SCF Done:  E(UwB97XD) =  -79.6684381413     A.U. after   11 cycles
            NFock= 11  Conv=0.51D-08     -V/T= 2.0070
 <Sx>= 0.0000 <Sy>= 0.0000 <Sz>= 0.0000 <S**2>= 0.9549 S= 0.5977
 <L.S>=  0.00000000000    
 Annihilation of the first spin contaminant:
 S**2 before annihilation     0.9549,   after     0.0454

 **********************************************************************

            Population analysis using the SCF density.

 **********************************************************************

 Alpha  occ. eigenvalues --  -10.29822 -10.28666  -0.78622  -0.74630  -0.49542
 Alpha  occ. eigenvalues --   -0.49534  -0.48203  -0.48195  -0.33165
 Alpha virt. eigenvalues --   -0.00894   0.03343   0.04784   0.04784   0.04915
 Alpha virt. eigenvalues --    0.06562   0.06562   0.11295   0.13274   0.13276
 Alpha virt. eigenvalues --    0.13362   0.13549   0.13550   0.14560   0.15117
 Alpha virt. eigenvalues --    0.20523   0.20525   0.20959   0.20961   0.22976
 Alpha virt. eigenvalues --    0.22977   0.27864   0.29928   0.29929   0.30380
 Alpha virt. eigenvalues --    0.32661   0.32763   0.32764   0.33482   0.33482
 Alpha virt. eigenvalues --    0.33772   0.35590   0.36072   0.36747   0.38299
 Alpha virt. eigenvalues --    0.38300   0.38492   0.40568   0.40615   0.40618
 Alpha virt. eigenvalues --    0.42248   0.42249   0.43749   0.44329   0.44332
 Alpha virt. eigenvalues --    0.48154   0.48155   0.51691   0.51693   0.57517
 Alpha virt. eigenvalues --    0.59421   0.59422   0.65779   0.65783   0.68957
 Alpha virt. eigenvalues --    0.70769   0.75862   0.76247   0.76250   0.77312
 Alpha virt. eigenvalues --    0.77314   0.80969   0.80970   0.82070   0.83927
 Alpha virt. eigenvalues --    0.84530   0.85273   0.91924   0.92333   0.92334
 Alpha virt. eigenvalues --    0.92544   0.92544   0.94597   0.95576   0.95577
 Alpha virt. eigenvalues --    0.97951   0.98236   0.98237   0.99895   0.99898
 Alpha virt. eigenvalues --    1.03327   1.04488   1.06386   1.06391   1.08643
 Alpha virt. eigenvalues --    1.09362   1.09363   1.12348   1.12349   1.13031
 Alpha virt. eigenvalues --    1.13033   1.13311   1.15601   1.15607   1.16561
 Alpha virt. eigenvalues --    1.18961   1.18962   1.27964   1.31078   1.36370
 Alpha virt. eigenvalues --    1.36372   1.38567   1.38573   1.44405   1.44409
 Alpha virt. eigenvalues --    1.45943   1.49042   1.49047   1.51140   1.51689
 Alpha virt. eigenvalues --    1.53279   1.53285   1.54348   1.54736   1.54738
 Alpha virt. eigenvalues --    1.59098   1.66264   1.74306   1.74312   1.75958
 Alpha virt. eigenvalues --    1.75966   1.81392   1.84043   1.85926   1.87159
 Alpha virt. eigenvalues --    1.90740   1.90747   1.92024   1.92035   2.03456
 Alpha virt. eigenvalues --    2.03460   2.07676   2.07679   2.11294   2.13712
 Alpha virt. eigenvalues --    2.70569   2.80461   2.80463   2.81609   2.83707
 Alpha virt. eigenvalues --    2.83708   2.86064   2.98474   3.14534   3.14536
 Alpha virt. eigenvalues --    3.20414   3.20417   3.27927   3.33007   3.33009
 Alpha virt. eigenvalues --    3.34214   3.35281   3.35282   3.36523   3.39808
 Alpha virt. eigenvalues --    3.41151   3.41152   3.46583   3.46587   3.48897
 Alpha virt. eigenvalues --    3.52218   3.57493   3.57496   3.60651   3.60655
 Alpha virt. eigenvalues --    3.73668   3.73674   3.75067   3.75071   3.79561
 Alpha virt. eigenvalues --    3.80386   3.80982   3.82195   3.91925   3.91930
 Alpha virt. eigenvalues --    3.93245   3.93248   4.18245   4.18249   4.18361
 Alpha virt. eigenvalues --    4.19593   4.24303   4.24307   4.41442   4.48967
 Alpha virt. eigenvalues --    4.48971   4.49697   4.49699   4.55729   4.62631
 Alpha virt. eigenvalues --    4.62638   4.64271   4.64775   4.64782   4.65798
 Alpha virt. eigenvalues --    4.85289   4.88084   4.92784   4.92812   4.93582
 Alpha virt. eigenvalues --    4.93610   5.14147   5.14168   5.15192   5.16177
 Alpha virt. eigenvalues --    5.16200   5.16243   5.55255   5.56694   5.63473
 Alpha virt. eigenvalues --    5.68237   5.69150   5.69191   5.69853   5.69894
 Alpha virt. eigenvalues --    6.24207   6.24232   6.25593   6.25616  15.85098
 Alpha virt. eigenvalues --   15.87613
  Beta  occ. eigenvalues --  -10.29822 -10.28666  -0.78622  -0.74630  -0.49542
  Beta  occ. eigenvalues --   -0.49534  -0.48204  -0.48195  -0.33165
  Beta virt. eigenvalues --   -0.00894   0.03343   0.04784   0.04784   0.04915
  Beta virt. eigenvalues --    0.06562   0.06562   0.11295   0.13274   0.13276
  Beta virt. eigenvalues --    0.13362   0.13549   0.13550   0.14560   0.15117
  Beta virt. eigenvalues --    0.20523   0.20525   0.20959   0.20961   0.22976
  Beta virt. eigenvalues --    0.22977   0.27864   0.29928   0.29929   0.30380
  Beta virt. eigenvalues --    0.32661   0.32763   0.32764   0.33482   0.33482
  Beta virt. eigenvalues --    0.33772   0.35590   0.36072   0.36747   0.38299
  Beta virt. eigenvalues --    0.38300   0.38492   0.40568   0.40616   0.40618
  Beta virt. eigenvalues --    0.42248   0.42249   0.43749   0.44329   0.44332
  Beta virt. eigenvalues --    0.48154   0.48155   0.51691   0.51693   0.57517
  Beta virt. eigenvalues --    0.59421   0.59422   0.65779   0.65783   0.68957
  Beta virt. eigenvalues --    0.70769   0.75862   0.76247   0.76250   0.77311
  Beta virt. eigenvalues --    0.77314   0.80969   0.80970   0.82070   0.83927
  Beta virt. eigenvalues --    0.84530   0.85273   0.91924   0.92333   0.92334
  Beta virt. eigenvalues --    0.92544   0.92544   0.94597   0.95575   0.95577
  Beta virt. eigenvalues --    0.97951   0.98236   0.98237   0.99896   0.99897
  Beta virt. eigenvalues --    1.03327   1.04488   1.06386   1.06391   1.08643
  Beta virt. eigenvalues --    1.09362   1.09363   1.12348   1.12349   1.13031
  Beta virt. eigenvalues --    1.13033   1.13311   1.15601   1.15607   1.16561
  Beta virt. eigenvalues --    1.18961   1.18962   1.27964   1.31078   1.36370
  Beta virt. eigenvalues --    1.36372   1.38567   1.38573   1.44405   1.44409
  Beta virt. eigenvalues --    1.45943   1.49042   1.49047   1.51140   1.51689
  Beta virt. eigenvalues --    1.53279   1.53284   1.54348   1.54735   1.54739
  Beta virt. eigenvalues --    1.59098   1.66264   1.74306   1.74312   1.75958
  Beta virt. eigenvalues --    1.75966   1.81392   1.84043   1.85926   1.87159
  Beta virt. eigenvalues --    1.90740   1.90747   1.92023   1.92036   2.03456
  Beta virt. eigenvalues --    2.03460   2.07676   2.07679   2.11294   2.13712
  Beta virt. eigenvalues --    2.70569   2.80461   2.80463   2.81609   2.83707
  Beta virt. eigenvalues --    2.83708   2.86064   2.98474   3.14534   3.14536
  Beta virt. eigenvalues --    3.20414   3.20417   3.27927   3.33007   3.33009
  Beta virt. eigenvalues --    3.34214   3.35281   3.35283   3.36523   3.39808
  Beta virt. eigenvalues --    3.41151   3.41152   3.46583   3.46587   3.48897
  Beta virt. eigenvalues --    3.52218   3.57493   3.57496   3.60651   3.60655
  Beta virt. eigenvalues --    3.73668   3.73674   3.75067   3.75071   3.79561
  Beta virt. eigenvalues --    3.80386   3.80982   3.82195   3.91925   3.91930
  Beta virt. eigenvalues --    3.93245   3.93248   4.18245   4.18249   4.18361
  Beta virt. eigenvalues --    4.19593   4.24303   4.24307   4.41442   4.48967
  Beta virt. eigenvalues --    4.48971   4.49697   4.49699   4.55729   4.62631
  Beta virt. eigenvalues --    4.62638   4.64271   4.64775   4.64782   4.65798
  Beta virt. eigenvalues --    4.85289   4.88084   4.92784   4.92812   4.93582
  Beta virt. eigenvalues --    4.93610   5.14147   5.14168   5.15192   5.16177
  Beta virt. eigenvalues --    5.16200   5.16243   5.55255   5.56694   5.63473
  Beta virt. eigenvalues --    5.68237   5.69150   5.69191   5.69854   5.69894
  Beta virt. eigenvalues --    6.24207   6.24231   6.25592   6.25617  15.85098
  Beta virt. eigenvalues --   15.87613
          Condensed to atoms (all electrons):
               1          2          3          4          5          6
     1  C    5.804339   0.364243   0.364159   0.364255   0.011003  -0.000516
     2  H    0.364243   0.318948   0.007618   0.007624  -0.000500  -0.000070
     3  H    0.364159   0.007618   0.318912   0.007612  -0.000515   0.000046
     4  H    0.364255   0.007624   0.007612   0.319056  -0.000488  -0.000070
     5  C    0.011003  -0.000500  -0.000515  -0.000488   5.804339   0.364158
     6  H   -0.000516  -0.000070   0.000046  -0.000070   0.364158   0.318870
     7  H   -0.000488  -0.000069  -0.000069   0.000048   0.364253   0.007609
     8  H   -0.000499   0.000047  -0.000070  -0.000069   0.364247   0.007617
               7          8
     1  C   -0.000488  -0.000499
     2  H   -0.000069   0.000047
     3  H   -0.000069  -0.000070
     4  H    0.000048  -0.000069
     5  C    0.364253   0.364247
     6  H    0.007609   0.007617
     7  H    0.319058   0.007628
     8  H    0.007628   0.318990
          Atomic-Atomic Spin Densities.
               1          2          3          4          5          6
     1  C   -0.950850  -0.016028  -0.016167  -0.015941   0.000000   0.001004
     2  H   -0.016028   0.031821  -0.004681  -0.004678  -0.000985   0.000000
     3  H   -0.016167  -0.004681   0.031768  -0.004691  -0.001002   0.000000
     4  H   -0.015941  -0.004678  -0.004691   0.031902  -0.000971   0.000000
     5  C    0.000000  -0.000985  -0.001002  -0.000971   0.950850   0.016191
     6  H    0.001004   0.000000   0.000000   0.000000   0.016191  -0.031751
     7  H    0.000971  -0.000000  -0.000000  -0.000000   0.015940   0.004690
     8  H    0.000983  -0.000000  -0.000000   0.000000   0.016006   0.004681
               7          8
     1  C    0.000971   0.000983
     2  H   -0.000000  -0.000000
     3  H   -0.000000  -0.000000
     4  H   -0.000000   0.000000
     5  C    0.015940   0.016006
     6  H    0.004690   0.004681
     7  H   -0.031902   0.004678
     8  H    0.004678  -0.031838
 Mulliken charges and spin densities:
               1          2
     1  C   -0.906497  -0.996028
     2  H    0.302159   0.005449
     3  H    0.302307   0.005227
     4  H    0.302031   0.005620
     5  C   -0.906496   0.996029
     6  H    0.302356  -0.005183
     7  H    0.302031  -0.005622
     8  H    0.302109  -0.005490
 Sum of Mulliken charges =  -0.00000  -0.00000
 Mulliken charges and spin densities with hydrogens summed into heavy atoms:
               1          2
     1  C    0.000000  -0.979733
     5  C   -0.000000   0.979733
 Electronic spatial extent (au):  <R**2>=            496.6605
 Charge=              0.0000 electrons
 Dipole moment (field-independent basis, Debye):
    X=              0.0001    Y=             -0.0000    Z=              0.0000  Tot=              0.0001
 Quadrupole moment (field-independent basis, Debye-Ang):
   XX=            -14.6381   YY=            -13.7273   ZZ=            -14.7855
   XY=              0.5580   XZ=              0.1752   YZ=              0.3705
 Traceless Quadrupole moment (field-independent basis, Debye-Ang):
   XX=             -0.2545   YY=              0.6563   ZZ=             -0.4019
   XY=              0.5580   XZ=              0.1752   YZ=              0.3705
 Octapole moment (field-independent basis, Debye-Ang**2):
  XXX=             32.5995  YYY=             64.4038  ZZZ=             21.8732  XYY=              8.4471
  XXY=             22.0630  XXZ=              6.9579  XZZ=             10.8053  YZZ=             22.7573
  YYZ=              5.6075  XYZ=             -0.8241
 Hexadecapole moment (field-independent basis, Debye-Ang**3):
 XXXX=           -127.8503 YYYY=           -472.2476 ZZZZ=            -70.6798 XXXY=           -103.3883
 XXXZ=            -35.9666 YYYX=           -107.6569 YYYZ=            -71.4891 ZZZX=            -31.9904
 ZZZY=            -67.3781 XXYY=           -100.5981 XXZZ=            -35.6914 YYZZ=            -92.5329
 XXYZ=            -24.4307 YYXZ=             -9.5752 ZZXY=            -34.8438
 N-N= 3.042933128935D+01 E-N=-2.446624362590D+02  KE= 7.911638530988D+01
                          Isotropic Fermi Contact Couplings
        Atom                 a.u.       MegaHertz       Gauss      10(-4) cm-1
     1  C(13)             -0.17389     -97.74175     -34.87668     -32.60314
     2  H(1)               0.00716      16.00209       5.70994       5.33772
     3  H(1)               0.00716      16.00481       5.71091       5.33863
     4  H(1)               0.00716      16.01243       5.71363       5.34117
     5  C(13)              0.17389      97.74204      34.87679      32.60324
     6  H(1)              -0.00716     -15.99522      -5.70749      -5.33543
     7  H(1)              -0.00716     -16.01302      -5.71385      -5.34137
     8  H(1)              -0.00716     -16.01098      -5.71312      -5.34069
 --------------------------------------------------------
       Center         ----  Spin Dipole Couplings  ----
                      3XX-RR        3YY-RR        3ZZ-RR
 --------------------------------------------------------
     1   Atom        0.249020     -0.642940      0.393920
     2   Atom        0.054935      0.017988     -0.072923
     3   Atom       -0.053032      0.017990      0.035042
     4   Atom       -0.003625     -0.031417      0.035042
     5   Atom       -0.249017      0.643079     -0.394062
     6   Atom        0.053065     -0.017976     -0.035089
     7   Atom        0.003649      0.031409     -0.035058
     8   Atom       -0.054921     -0.017994      0.072915
 --------------------------------------------------------
                        XY            XZ            YZ
 --------------------------------------------------------
     1   Atom       -0.546503     -0.172351     -0.363084
     2   Atom       -0.022636      0.000953      0.002010
     3   Atom       -0.006913      0.046344     -0.021642
     4   Atom        0.033405     -0.046065      0.022218
     5   Atom        0.546564      0.172246      0.362842
     6   Atom        0.006882     -0.046324      0.021649
     7   Atom       -0.033408      0.046061     -0.022214
     8   Atom        0.022634     -0.001004     -0.001966
 --------------------------------------------------------


 ---------------------------------------------------------------------------------
              Anisotropic Spin Dipole Couplings in Principal Axis System
 ---------------------------------------------------------------------------------

       Atom             a.u.   MegaHertz   Gauss  10(-4) cm-1        Axes

              Baa    -1.0168  -136.451   -48.689   -45.515  0.4124  0.8688  0.2740
     1 C(13)  Bbb     0.5084    68.224    24.344    22.757  0.5401 -0.4754  0.6945
              Bcc     0.5084    68.226    24.345    22.758  0.7336 -0.1384 -0.6653
 
              Baa    -0.0730   -38.941   -13.895   -12.989 -0.0119 -0.0250  0.9996
     2 H(1)   Bbb     0.0073     3.898     1.391     1.300  0.4286  0.9031  0.0277
              Bcc     0.0657    35.043    12.504    11.689  0.9034 -0.4288 -0.0000
 
              Baa    -0.0730   -38.938   -13.894   -12.988  0.9169 -0.0251 -0.3984
     3 H(1)   Bbb     0.0073     3.901     1.392     1.301  0.1917  0.9031  0.3844
              Bcc     0.0657    35.037    12.502    11.687  0.3501 -0.4288  0.8328
 
              Baa    -0.0730   -38.937   -13.894   -12.988 -0.5991  0.6945 -0.3984
     4 H(1)   Bbb     0.0073     3.901     1.392     1.301  0.5784  0.7195  0.3844
              Bcc     0.0657    35.036    12.502    11.687 -0.5536  0.0001  0.8328
 
              Baa    -0.5085   -68.229   -24.346   -22.759  0.8759 -0.2956 -0.3814
     5 C(13)  Bbb    -0.5084   -68.221   -24.343   -22.756  0.2505 -0.3971  0.8829
              Bcc     1.0168   136.451    48.689    45.515  0.4124  0.8689  0.2738
 
              Baa    -0.0657   -35.043   -12.504   -11.689  0.3498 -0.4285  0.8331
     6 H(1)   Bbb    -0.0073    -3.899    -1.391    -1.301  0.1918  0.9032  0.3841
              Bcc     0.0730    38.942    13.896    12.990  0.9170 -0.0254 -0.3981
 
              Baa    -0.0657   -35.036   -12.502   -11.687 -0.5534  0.0001  0.8329
     7 H(1)   Bbb    -0.0073    -3.901    -1.392    -1.301  0.5785  0.7195  0.3842
              Bcc     0.0730    38.937    13.894    12.988 -0.5993  0.6945 -0.3983
 
              Baa    -0.0657   -35.037   -12.502   -11.687  0.9034 -0.4289  0.0005
     8 H(1)   Bbb    -0.0073    -3.899    -1.391    -1.301  0.4287  0.9030  0.0275
              Bcc     0.0730    38.937    13.894    12.988 -0.0122 -0.0246  0.9996
 

 ---------------------------------------------------------------------------------

 DipInt: DoE/N= T T RetVal/Mat= T F Init=T NMatP=  1 IDeriv=0 Min/MaxMlt=  1  1
 Entering OneElI...
 Multipole integrals L=1 to 1 MinM= 0 MaxM= 0.
 Requested accuracy = 0.1000D-12
 PrsmSu:  NPrtUS=   1 ThrOK=F IAlg=1 NPAlg=1 LenDen=           0.
 Prism:   IPart=     0 DynPar=F LinDyn=F Incr=          33.
 PRISM was handed   419155203 working-precision words and  3331 shell-pairs
 IPart=  0 NShTot=        3331 NBatch=          39 AvBLen=        85.4
 PrSmSu:  NxtVal=             34.
 Entering OneElI...
 Calculate overlap and kinetic energy integrals
    NBasis = 260  MinDer = 1  MaxDer = 1
 Requested accuracy = 0.1000D-12
 PrsmSu:  NPrtUS=  32 ThrOK=T IAlg=1 NPAlg=1 LenDen=           0.
 Prism:   IPart=     0 DynPar=F LinDyn=F Incr=           1.
 PRISM was handed    13043487 working-precision words and  3402 shell-pairs
 PRISM was handed    13043487 working-precision words and  3402 shell-pairs
 PRISM was handed    13043487 working-precision words and  3402 shell-pairs
 PRISM was handed    13043487 working-precision words and  3402 shell-pairs
 PRISM was handed    13043487 working-precision words and  3402 shell-pairs
 PRISM was handed    13043487 working-precision words and  3402 shell-pairs
 PRISM was handed    13043487 working-precision words and  3402 shell-pairs
 PRISM was handed    13043487 working-precision words and  3402 shell-pairs
 PRISM was handed    13043487 working-precision words and  3402 shell-pairs
 PRISM was handed    13043487 working-precision words and  3402 shell-pairs
 PRISM was handed    13043487 working-precision words and  3402 shell-pairs
 PRISM was handed    13043487 working-precision words and  3402 shell-pairs
 PRISM was handed    13043487 working-precision words and  3402 shell-pairs
 PRISM was handed    13043487 working-precision words and  3402 shell-pairs
 PRISM was handed    13043487 working-precision words and  3402 shell-pairs
 PRISM was handed    13043487 working-precision words and  3402 shell-pairs
 PRISM was handed    13043487 working-precision words and  3402 shell-pairs
 PRISM was handed    13043487 working-precision words and  3402 shell-pairs
 PRISM was handed    13043487 working-precision words and  3402 shell-pairs
 PRISM was handed    13043487 working-precision words and  3402 shell-pairs
 PRISM was handed    13043487 working-precision words and  3402 shell-pairs
 PRISM was handed    13043487 working-precision words and  3402 shell-pairs
 PRISM was handed    13043487 working-precision words and  3402 shell-pairs
 PRISM was handed    13043487 working-precision words and  3402 shell-pairs
 PRISM was handed    13043487 working-precision words and  3402 shell-pairs
 PRISM was handed    13043487 working-precision words and  3402 shell-pairs
 PRISM was handed    13043487 working-precision words and  3402 shell-pairs
 PRISM was handed    13043487 working-precision words and  3402 shell-pairs
 PRISM was handed    13043487 working-precision words and  3402 shell-pairs
 PRISM was handed    13043487 working-precision words and  3402 shell-pairs
 PRISM was handed    13043487 working-precision words and  3402 shell-pairs
 PRISM was handed    13043487 working-precision words and  3402 shell-pairs
 IPart=  0 NShTot=         135 NBatch=          43 AvBLen=         3.1
 IPart= 26 NShTot=          94 NBatch=          20 AvBLen=         4.7
 IPart=  7 NShTot=         116 NBatch=          27 AvBLen=         4.3
 IPart=  2 NShTot=         126 NBatch=          34 AvBLen=         3.7
 IPart=  5 NShTot=         123 NBatch=          34 AvBLen=         3.6
 IPart= 10 NShTot=         109 NBatch=          23 AvBLen=         4.7
 IPart= 15 NShTot=         104 NBatch=          21 AvBLen=         5.0
 IPart= 29 NShTot=          94 NBatch=          20 AvBLen=         4.7
 IPart= 30 NShTot=          94 NBatch=          20 AvBLen=         4.7
 IPart= 11 NShTot=         108 NBatch=          23 AvBLen=         4.7
 IPart=  3 NShTot=         126 NBatch=          34 AvBLen=         3.7
 IPart= 18 NShTot=         100 NBatch=          21 AvBLen=         4.8
 IPart= 23 NShTot=          97 NBatch=          21 AvBLen=         4.6
 IPart= 28 NShTot=          94 NBatch=          20 AvBLen=         4.7
 IPart= 20 NShTot=          99 NBatch=          21 AvBLen=         4.7
 IPart=  9 NShTot=         112 NBatch=          24 AvBLen=         4.7
 IPart= 13 NShTot=         104 NBatch=          21 AvBLen=         5.0
 IPart= 25 NShTot=          95 NBatch=          20 AvBLen=         4.8
 IPart= 31 NShTot=          94 NBatch=          20 AvBLen=         4.7
 IPart= 12 NShTot=         104 NBatch=          21 AvBLen=         5.0
 IPart= 27 NShTot=          94 NBatch=          20 AvBLen=         4.7
 IPart=  4 NShTot=         123 NBatch=          34 AvBLen=         3.6
 IPart= 21 NShTot=          98 NBatch=          21 AvBLen=         4.7
 IPart=  8 NShTot=         112 NBatch=          24 AvBLen=         4.7
 IPart= 14 NShTot=         104 NBatch=          21 AvBLen=         5.0
 IPart=  6 NShTot=         116 NBatch=          27 AvBLen=         4.3
 IPart= 24 NShTot=          95 NBatch=          20 AvBLen=         4.8
 IPart= 19 NShTot=         100 NBatch=          21 AvBLen=         4.8
 IPart= 16 NShTot=         101 NBatch=          21 AvBLen=         4.8
 IPart= 22 NShTot=          97 NBatch=          21 AvBLen=         4.6
 IPart= 17 NShTot=         101 NBatch=          21 AvBLen=         4.8
 IPart=  1 NShTot=         133 NBatch=          41 AvBLen=         3.2
 PrSmSu:  NxtVal=             33.
 Entering OneElI...
 Calculate potential energy integrals
    NBasis = 260  MinDer = 1  MaxDer = 1
 Requested accuracy = 0.1000D-12
 PrsmSu:  NPrtUS=  32 ThrOK=T IAlg=1 NPAlg=1 LenDen=           0.
 Prism:   IPart=     0 DynPar=F LinDyn=F Incr=           8.
 PRISM was handed    13049873 working-precision words and  3243 shell-pairs
 PRISM was handed    13049873 working-precision words and  3243 shell-pairs
 PRISM was handed    13049873 working-precision words and  3243 shell-pairs
 PRISM was handed    13049873 working-precision words and  3243 shell-pairs
 PRISM was handed    13049873 working-precision words and  3243 shell-pairs
 PRISM was handed    13049873 working-precision words and  3243 shell-pairs
 PRISM was handed    13049873 working-precision words and  3243 shell-pairs
 PRISM was handed    13049873 working-precision words and  3243 shell-pairs
 PRISM was handed    13049873 working-precision words and  3243 shell-pairs
 PRISM was handed    13049873 working-precision words and  3243 shell-pairs
 PRISM was handed    13049873 working-precision words and  3243 shell-pairs
 PRISM was handed    13049873 working-precision words and  3243 shell-pairs
 PRISM was handed    13049873 working-precision words and  3243 shell-pairs
 PRISM was handed    13049873 working-precision words and  3243 shell-pairs
 PRISM was handed    13049873 working-precision words and  3243 shell-pairs
 PRISM was handed    13049873 working-precision words and  3243 shell-pairs
 PRISM was handed    13049873 working-precision words and  3243 shell-pairs
 PRISM was handed    13049873 working-precision words and  3243 shell-pairs
 PRISM was handed    13049873 working-precision words and  3243 shell-pairs
 PRISM was handed    13049873 working-precision words and  3243 shell-pairs
 PRISM was handed    13049873 working-precision words and  3243 shell-pairs
 PRISM was handed    13049873 working-precision words and  3243 shell-pairs
 PRISM was handed    13049873 working-precision words and  3243 shell-pairs
 PRISM was handed    13049873 working-precision words and  3243 shell-pairs
 PRISM was handed    13049873 working-precision words and  3243 shell-pairs
 PRISM was handed    13049873 working-precision words and  3243 shell-pairs
 PRISM was handed    13049873 working-precision words and  3243 shell-pairs
 PRISM was handed    13049873 working-precision words and  3243 shell-pairs
 PRISM was handed    13049873 working-precision words and  3243 shell-pairs
 PRISM was handed    13049873 working-precision words and  3243 shell-pairs
 PRISM was handed    13049873 working-precision words and  3243 shell-pairs
 PRISM was handed    13049873 working-precision words and  3243 shell-pairs
 IPart= 22 NShTot=         752 NBatch=          94 AvBLen=         8.0
 IPart= 26 NShTot=         744 NBatch=          93 AvBLen=         8.0
 IPart= 24 NShTot=         752 NBatch=          94 AvBLen=         8.0
 IPart= 31 NShTot=         712 NBatch=          89 AvBLen=         8.0
 IPart= 16 NShTot=         776 NBatch=          97 AvBLen=         8.0
 IPart= 29 NShTot=         712 NBatch=          89 AvBLen=         8.0
 IPart= 19 NShTot=         760 NBatch=          95 AvBLen=         8.0
 IPart= 27 NShTot=         744 NBatch=          93 AvBLen=         8.0
 IPart=  1 NShTot=        1024 NBatch=         128 AvBLen=         8.0
 IPart= 10 NShTot=         800 NBatch=         100 AvBLen=         8.0
 IPart=  6 NShTot=         856 NBatch=         107 AvBLen=         8.0
 IPart= 14 NShTot=         784 NBatch=          98 AvBLen=         8.0
 IPart=  2 NShTot=         960 NBatch=         120 AvBLen=         8.0
 IPart=  8 NShTot=         840 NBatch=         105 AvBLen=         8.0
 IPart=  4 NShTot=         944 NBatch=         118 AvBLen=         8.0
 IPart= 12 NShTot=         800 NBatch=         100 AvBLen=         8.0
 IPart= 17 NShTot=         776 NBatch=          97 AvBLen=         8.0
 IPart= 15 NShTot=         784 NBatch=          98 AvBLen=         8.0
 IPart=  0 NShTot=        1032 NBatch=         129 AvBLen=         8.0
 IPart= 18 NShTot=         760 NBatch=          95 AvBLen=         8.0
 IPart= 25 NShTot=         752 NBatch=          94 AvBLen=         8.0
 IPart= 11 NShTot=         800 NBatch=         100 AvBLen=         8.0
 IPart= 30 NShTot=         712 NBatch=          89 AvBLen=         8.0
 IPart= 28 NShTot=         712 NBatch=          89 AvBLen=         8.0
 IPart= 23 NShTot=         752 NBatch=          94 AvBLen=         8.0
 IPart=  5 NShTot=         944 NBatch=         118 AvBLen=         8.0
 IPart= 21 NShTot=         752 NBatch=          94 AvBLen=         8.0
 IPart=  3 NShTot=         960 NBatch=         120 AvBLen=         8.0
 IPart=  9 NShTot=         840 NBatch=         105 AvBLen=         8.0
 IPart= 13 NShTot=         800 NBatch=         100 AvBLen=         8.0
 IPart= 20 NShTot=         752 NBatch=          94 AvBLen=         8.0
 IPart=  7 NShTot=         856 NBatch=         107 AvBLen=         8.0
 PrSmSu:  NxtVal=            257.
 l701 out
 I=    0 X=   2.507360169712D-05 Y=  -1.323491485916D-05 Z=   3.618100446801D-06
 I=    1 X=  -4.847976048549D-01 Y=  -1.021951187976D+00 Z=  -3.213488316659D-01
 I=    2 X=   7.682329552211D-02 Y=   1.615995281121D-01 Z=   2.749962812070D+00
 I=    3 X=   2.564294777577D+00 Y=   1.619367198273D-01 Z=  -9.949028926591D-01
 I=    4 X=  -1.496115618390D+00 Y=   2.089071730920D+00 Z=  -9.952709308568D-01
 I=    5 X=   4.837133758946D-01 Y=   1.022131825996D+00 Z=   3.224205507962D-01
 I=    6 X=  -2.564767009149D+00 Y=  -1.613110406082D-01 Z=   9.940844981078D-01
 I=    7 X=   1.496608627897D+00 Y=  -2.088881655855D+00 Z=   9.948925558882D-01
 I=    8 X=  -7.575984449730D-02 Y=  -1.625959204154D-01 Z=  -2.749837761680D+00
 ICntrl=      2127.
 Calling FoFJK, ICntrl=      2127 FMM=F ISym2X=0 I1Cent= 0 IOpClX= 1 NMat=1 NMatS=1 NMatT=0.
 FoFJK:  IHMeth= 1 ICntrl=    2127 DoSepK=T KAlg= 0 I1Cent=   0 FoldK=F
 IRaf=         1 NMat=   1 IRICut=       1 DoRegI=T DoRafI=F ISym2E= 0.
 FoFCou: FMM=F IPFlag=           0 FMFlag=      100000 FMFlg1=         800
         NFxFlg=           0 DoJE=F BraDBF=F KetDBF=F FulRan=T
         wScrn=  0.000000 ICntrl=    2527 IOpCl=  0 I1Cent=           0 NGrid=           0
         NMat0=    1 NMatS0=      1 NMatT0=    0 NMatD0=    1 NMtDS0=    0 NMtDT0=    0
 Symmetry not used in FoFCou.
 FoFCou:  KetSym=F NOpSet=  1 NOpAb=1 NOp=  1.
 FoFCou:  CnvScl= 1.00D+00 Thresh= 1.00D-10 IAcrcy=      10.
 PrismS was handed   419085704 working-precision words and  3281 shell-pairs
 FoFCou: LinMIO=F DoNuc=F BraDBF=F KetDBF=F HaveP=T PDBF=F HaveZ=T HaveW=F
         NIJTC =      10 NIJTAt=       0 NIJTCD=       0 NIJTT =      10
         IJTBeg=       1 IJTEnd=      10 KLTBeg=       1 KLTEnd=      10
         IPTBeg=       1 IPTEnd=      10 IPTBCv=       1 IPTECv=      10
         IZTBeg=       1 IZTEnd=      10 IZTBCv=       1 IZTECv=      10
         IWTBeg=      11 IWTEnd=      10 IWTBCv=      11 IWTECv=      10
         INTBeg=       1 INTEnd=       0 IFTBCv=       1 IFTECv=      10
 NCel replicated for PrismC:     1
 CoulSu:  IncDef=  1024 NBBP=        5384121 NTPThr=   100 NPartT=   32 Incr=        1024 LDynOK=F.
 CoulSu:  NPrtUS=  32 ThrOK=T IAlg=1 NPAlg=1 LenDen=           0 LWGrdD=           0 DoCopy=F.
 Enter PrismC: JobTyp=21 DoJE=F Cont=F.
 PrismC:  IPart=     0 DynPar=T LinDyn=F Incr=        1024 UseFst=F UseS4=T IGathr=2.
 PrismC was handed    13046867 working-precision words and  3281 shell-pairs
 Enter PrismC: JobTyp=21 DoJE=F Cont=F.
 Enter PrismC: JobTyp=21 DoJE=F Cont=F.
 Enter PrismC: JobTyp=21 DoJE=F Cont=F.
 Enter PrismC: JobTyp=21 DoJE=F Cont=F.
 Enter PrismC: JobTyp=21 DoJE=F Cont=F.
 Enter PrismC: JobTyp=21 DoJE=F Cont=F.
 Enter PrismC: JobTyp=21 DoJE=F Cont=F.
 Enter PrismC: JobTyp=21 DoJE=F Cont=F.
 Enter PrismC: JobTyp=21 DoJE=F Cont=F.
 Enter PrismC: JobTyp=21 DoJE=F Cont=F.
 Enter PrismC: JobTyp=21 DoJE=F Cont=F.
 Enter PrismC: JobTyp=21 DoJE=F Cont=F.
 Enter PrismC: JobTyp=21 DoJE=F Cont=F.
 Enter PrismC: JobTyp=21 DoJE=F Cont=F.
 Enter PrismC: JobTyp=21 DoJE=F Cont=F.
 Enter PrismC: JobTyp=21 DoJE=F Cont=F.
 Enter PrismC: JobTyp=21 DoJE=F Cont=F.
 Enter PrismC: JobTyp=21 DoJE=F Cont=F.
 Enter PrismC: JobTyp=21 DoJE=F Cont=F.
 Enter PrismC: JobTyp=21 DoJE=F Cont=F.
 Enter PrismC: JobTyp=21 DoJE=F Cont=F.
 PrismC was handed    13046867 working-precision words and  3281 shell-pairs
 Enter PrismC: JobTyp=21 DoJE=F Cont=F.
 PrismC was handed    13046867 working-precision words and  3281 shell-pairs
 Enter PrismC: JobTyp=21 DoJE=F Cont=F.
 PrismC was handed    13046867 working-precision words and  3281 shell-pairs
 Enter PrismC: JobTyp=21 DoJE=F Cont=F.
 PrismC was handed    13046867 working-precision words and  3281 shell-pairs
 Enter PrismC: JobTyp=21 DoJE=F Cont=F.
 PrismC was handed    13046867 working-precision words and  3281 shell-pairs
 Enter PrismC: JobTyp=21 DoJE=F Cont=F.
 PrismC was handed    13046867 working-precision words and  3281 shell-pairs
 Enter PrismC: JobTyp=21 DoJE=F Cont=F.
 PrismC was handed    13046867 working-precision words and  3281 shell-pairs
 Enter PrismC: JobTyp=21 DoJE=F Cont=F.
 PrismC was handed    13046867 working-precision words and  3281 shell-pairs
 Enter PrismC: JobTyp=21 DoJE=F Cont=F.
 PrismC was handed    13046867 working-precision words and  3281 shell-pairs
 Enter PrismC: JobTyp=21 DoJE=F Cont=F.
 PrismC was handed    13046867 working-precision words and  3281 shell-pairs
 Enter PrismC: JobTyp=21 DoJE=F Cont=F.
 PrismC was handed    13046867 working-precision words and  3281 shell-pairs
 PrismC was handed    13046867 working-precision words and  3281 shell-pairs
 PrismC was handed    13046867 working-precision words and  3281 shell-pairs
 PrismC was handed    13046867 working-precision words and  3281 shell-pairs
 PrismC was handed    13046867 working-precision words and  3281 shell-pairs
 PrismC was handed    13046867 working-precision words and  3281 shell-pairs
 PrismC was handed    13046867 working-precision words and  3281 shell-pairs
 PrismC was handed    13046867 working-precision words and  3281 shell-pairs
 PrismC was handed    13046867 working-precision words and  3281 shell-pairs
 PrismC was handed    13046867 working-precision words and  3281 shell-pairs
 PrismC was handed    13046867 working-precision words and  3281 shell-pairs
 PrismC was handed    13046867 working-precision words and  3281 shell-pairs
 PrismC was handed    13046867 working-precision words and  3281 shell-pairs
 PrismC was handed    13046867 working-precision words and  3281 shell-pairs
 PrismC was handed    13046867 working-precision words and  3281 shell-pairs
 PrismC was handed    13046867 working-precision words and  3281 shell-pairs
 PrismC was handed    13046867 working-precision words and  3281 shell-pairs
 PrismC was handed    13046867 working-precision words and  3281 shell-pairs
 PrismC was handed    13046867 working-precision words and  3281 shell-pairs
 PrismC was handed    13046867 working-precision words and  3281 shell-pairs
 PrismC was handed    13046867 working-precision words and  3281 shell-pairs
 IPart=  5 NShTot=      134570 NShNF=      134570 NShFF=           0 NBatch=        1010 AvBLen=       133.2
 IPart= 11 NShTot=      148384 NShNF=      148384 NShFF=           0 NBatch=        1258 AvBLen=       118.0
 IPart= 28 NShTot=      148741 NShNF=      148741 NShFF=           0 NBatch=        1199 AvBLen=       124.1
 IPart=  0 NShTot=      133346 NShNF=      133346 NShFF=           0 NBatch=         997 AvBLen=       133.7
 IPart= 30 NShTot=      144456 NShNF=      144456 NShFF=           0 NBatch=        1253 AvBLen=       115.3
 IPart=  4 NShTot=      143024 NShNF=      143024 NShFF=           0 NBatch=        1237 AvBLen=       115.6
 IPart= 16 NShTot=      148871 NShNF=      148871 NShFF=           0 NBatch=        1137 AvBLen=       130.9
 IPart= 29 NShTot=      141373 NShNF=      141373 NShFF=           0 NBatch=        1223 AvBLen=       115.6
 IPart= 18 NShTot=      141707 NShNF=      141707 NShFF=           0 NBatch=        1273 AvBLen=       111.3
 IPart= 13 NShTot=      139387 NShNF=      139387 NShFF=           0 NBatch=        1274 AvBLen=       109.4
 IPart= 14 NShTot=      141047 NShNF=      141047 NShFF=           0 NBatch=        1236 AvBLen=       114.1
 IPart= 27 NShTot=      147740 NShNF=      147740 NShFF=           0 NBatch=        1229 AvBLen=       120.2
 IPart= 24 NShTot=      143953 NShNF=      143953 NShFF=           0 NBatch=        1246 AvBLen=       115.5
 IPart=  6 NShTot=      129462 NShNF=      129462 NShFF=           0 NBatch=        1184 AvBLen=       109.3
 IPart= 10 NShTot=      149658 NShNF=      149658 NShFF=           0 NBatch=        1305 AvBLen=       114.7
 IPart= 17 NShTot=      145632 NShNF=      145632 NShFF=           0 NBatch=        1242 AvBLen=       117.3
 IPart= 19 NShTot=      147967 NShNF=      147967 NShFF=           0 NBatch=        1240 AvBLen=       119.3
 IPart=  2 NShTot=      140870 NShNF=      140870 NShFF=           0 NBatch=        1257 AvBLen=       112.1
 IPart= 23 NShTot=      146060 NShNF=      146060 NShFF=           0 NBatch=        1161 AvBLen=       125.8
 IPart= 31 NShTot=      113590 NShNF=      113590 NShFF=           0 NBatch=         948 AvBLen=       119.8
 IPart=  9 NShTot=      153022 NShNF=      153022 NShFF=           0 NBatch=        1301 AvBLen=       117.6
 IPart= 25 NShTot=      140549 NShNF=      140549 NShFF=           0 NBatch=        1248 AvBLen=       112.6
 IPart= 26 NShTot=       96356 NShNF=       96356 NShFF=           0 NBatch=         868 AvBLen=       111.0
 IPart= 15 NShTot=      149176 NShNF=      149176 NShFF=           0 NBatch=        1111 AvBLen=       134.3
 IPart=  3 NShTot=      115763 NShNF=      115763 NShFF=           0 NBatch=        1043 AvBLen=       111.0
 IPart=  1 NShTot=      128932 NShNF=      128932 NShFF=           0 NBatch=        1019 AvBLen=       126.5
 IPart= 21 NShTot=      149960 NShNF=      149960 NShFF=           0 NBatch=        1228 AvBLen=       122.1
 IPart= 12 NShTot=      145427 NShNF=      145427 NShFF=           0 NBatch=        1055 AvBLen=       137.8
 IPart=  7 NShTot=      136117 NShNF=      136117 NShFF=           0 NBatch=        1277 AvBLen=       106.6
 IPart= 20 NShTot=      137896 NShNF=      137896 NShFF=           0 NBatch=        1187 AvBLen=       116.2
 IPart= 22 NShTot=      152404 NShNF=      152404 NShFF=           0 NBatch=        1273 AvBLen=       119.7
 IPart=  8 NShTot=      154962 NShNF=      154962 NShFF=           0 NBatch=        1234 AvBLen=       125.6
 CoulSu:  NxtVal=        5922817.
 FoFCou: FMM=F IPFlag=           0 FMFlag=      100000 FMFlg1=         800
         NFxFlg=           0 DoJE=F BraDBF=F KetDBF=F FulRan=T
         wScrn=  0.000000 ICntrl=    2127 IOpCl=  1 I1Cent=           0 NGrid=           0
         NMat0=    1 NMatS0=      0 NMatT0=    1 NMatD0=    1 NMtDS0=    0 NMtDT0=    0
         CW=    0.222036    0.777964
         WU=    0.000000   12.500000
 Symmetry not used in FoFCou.
 FoFCou:  KetSym=F NOpSet=  1 NOpAb=1 NOp=  1.
 FoFCou:  CnvScl= 1.00D+00 Thresh= 1.00D-10 IAcrcy=      10.
 PrismS was handed   419082357 working-precision words and  3281 shell-pairs
 FoFCou: LinMIO=F DoNuc=F BraDBF=F KetDBF=F HaveP=T PDBF=F HaveZ=T HaveW=F
         NIJTC =      10 NIJTAt=       0 NIJTCD=       0 NIJTT =      10
         IJTBeg=       1 IJTEnd=      10 KLTBeg=       1 KLTEnd=      10
         IPTBeg=       1 IPTEnd=      10 IPTBCv=       1 IPTECv=      10
         IZTBeg=       1 IZTEnd=      10 IZTBCv=       1 IZTECv=      10
         IWTBeg=      11 IWTEnd=      10 IWTBCv=      11 IWTECv=      10
         INTBeg=       1 INTEnd=       0 IFTBCv=       1 IFTECv=      10
 NCel replicated for PrismC:     1
 CoulSu:  IncDef=  1024 NBBP=        5384121 NTPThr=   100 NPartT=   32 Incr=        1024 LDynOK=F.
 CoulSu:  NPrtUS=  32 ThrOK=T IAlg=1 NPAlg=1 LenDen=           0 LWGrdD=           0 DoCopy=F.
 Enter PrismC: JobTyp=21 DoJE=F Cont=F.
 Linear combination for Coulomb/exchange, wScrn=  0.000000
 CW=    0.222036    0.777964
 WU=    0.000000   12.500000
 PrismC:  IPart=     0 DynPar=T LinDyn=F Incr=        1024 UseFst=F UseS4=T IGathr=2.
 PrismC was handed    13046762 working-precision words and  3281 shell-pairs
 Enter PrismC: JobTyp=21 DoJE=F Cont=F.
 Enter PrismC: JobTyp=21 DoJE=F Cont=F.
 Enter PrismC: JobTyp=21 DoJE=F Cont=F.
 Linear combination for Coulomb/exchange, wScrn=  0.000000
 CW=    0.222036    0.777964
 WU=    0.000000   12.500000
 Enter PrismC: JobTyp=21 DoJE=F Cont=F.
 Linear combination for Coulomb/exchange, wScrn=  0.000000
 CW=    0.222036    0.777964
 WU=    0.000000   12.500000
 Enter PrismC: JobTyp=21 DoJE=F Cont=F.
 Linear combination for Coulomb/exchange, wScrn=  0.000000
 CW=    0.222036    0.777964
 WU=    0.000000   12.500000
 Enter PrismC: JobTyp=21 DoJE=F Cont=F.
 Linear combination for Coulomb/exchange, wScrn=  0.000000
 CW=    0.222036    0.777964
 WU=    0.000000   12.500000
 Enter PrismC: JobTyp=21 DoJE=F Cont=F.
 Linear combination for Coulomb/exchange, wScrn=  0.000000
 CW=    0.222036    0.777964
 WU=    0.000000   12.500000
 Enter PrismC: JobTyp=21 DoJE=F Cont=F.
 Linear combination for Coulomb/exchange, wScrn=  0.000000
 CW=    0.222036    0.777964
 WU=    0.000000   12.500000
 PrismC was handed    13046762 working-precision words and  3281 shell-pairs
 Enter PrismC: JobTyp=21 DoJE=F Cont=F.
 Linear combination for Coulomb/exchange, wScrn=  0.000000
 CW=    0.222036    0.777964
 WU=    0.000000   12.500000
 Enter PrismC: JobTyp=21 DoJE=F Cont=F.
 Linear combination for Coulomb/exchange, wScrn=  0.000000
 CW=    0.222036    0.777964
 WU=    0.000000   12.500000
 Enter PrismC: JobTyp=21 DoJE=F Cont=F.
 Linear combination for Coulomb/exchange, wScrn=  0.000000
 CW=    0.222036    0.777964
 WU=    0.000000   12.500000
 Enter PrismC: JobTyp=21 DoJE=F Cont=F.
 Linear combination for Coulomb/exchange, wScrn=  0.000000
 CW=    0.222036    0.777964
 WU=    0.000000   12.500000
 Enter PrismC: JobTyp=21 DoJE=F Cont=F.
 Linear combination for Coulomb/exchange, wScrn=  0.000000
 CW=    0.222036    0.777964
 WU=    0.000000   12.500000
 Linear combination for Coulomb/exchange, wScrn=  0.000000
 CW=    0.222036    0.777964
 WU=    0.000000   12.500000
 Enter PrismC: JobTyp=21 DoJE=F Cont=F.
 Linear combination for Coulomb/exchange, wScrn=  0.000000
 CW=    0.222036    0.777964
 WU=    0.000000   12.500000
 Enter PrismC: JobTyp=21 DoJE=F Cont=F.
 Linear combination for Coulomb/exchange, wScrn=  0.000000
 CW=    0.222036    0.777964
 WU=    0.000000   12.500000
 Enter PrismC: JobTyp=21 DoJE=F Cont=F.
 Linear combination for Coulomb/exchange, wScrn=  0.000000
 CW=    0.222036    0.777964
 WU=    0.000000   12.500000
 Enter PrismC: JobTyp=21 DoJE=F Cont=F.
 Linear combination for Coulomb/exchange, wScrn=  0.000000
 CW=    0.222036    0.777964
 WU=    0.000000   12.500000
 Enter PrismC: JobTyp=21 DoJE=F Cont=F.
 Linear combination for Coulomb/exchange, wScrn=  0.000000
 CW=    0.222036    0.777964
 WU=    0.000000   12.500000
 Enter PrismC: JobTyp=21 DoJE=F Cont=F.
 Linear combination for Coulomb/exchange, wScrn=  0.000000
 CW=    0.222036    0.777964
 WU=    0.000000   12.500000
 Enter PrismC: JobTyp=21 DoJE=F Cont=F.
 Linear combination for Coulomb/exchange, wScrn=  0.000000
 CW=    0.222036    0.777964
 WU=    0.000000   12.500000
 Enter PrismC: JobTyp=21 DoJE=F Cont=F.
 Linear combination for Coulomb/exchange, wScrn=  0.000000
 CW=    0.222036    0.777964
 WU=    0.000000   12.500000
 Enter PrismC: JobTyp=21 DoJE=F Cont=F.
 Linear combination for Coulomb/exchange, wScrn=  0.000000
 CW=    0.222036    0.777964
 WU=    0.000000   12.500000
 Enter PrismC: JobTyp=21 DoJE=F Cont=F.
 Linear combination for Coulomb/exchange, wScrn=  0.000000
 CW=    0.222036    0.777964
 WU=    0.000000   12.500000
 Enter PrismC: JobTyp=21 DoJE=F Cont=F.
 Linear combination for Coulomb/exchange, wScrn=  0.000000
 CW=    0.222036    0.777964
 WU=    0.000000   12.500000
 PrismC was handed    13046762 working-precision words and  3281 shell-pairs
 PrismC was handed    13046762 working-precision words and  3281 shell-pairs
 Enter PrismC: JobTyp=21 DoJE=F Cont=F.
 Linear combination for Coulomb/exchange, wScrn=  0.000000
 CW=    0.222036    0.777964
 WU=    0.000000   12.500000
 Enter PrismC: JobTyp=21 DoJE=F Cont=F.
 Linear combination for Coulomb/exchange, wScrn=  0.000000
 CW=    0.222036    0.777964
 WU=    0.000000   12.500000
 Enter PrismC: JobTyp=21 DoJE=F Cont=F.
 Linear combination for Coulomb/exchange, wScrn=  0.000000
 CW=    0.222036    0.777964
 WU=    0.000000   12.500000
 PrismC was handed    13046762 working-precision words and  3281 shell-pairs
 Enter PrismC: JobTyp=21 DoJE=F Cont=F.
 Linear combination for Coulomb/exchange, wScrn=  0.000000
 CW=    0.222036    0.777964
 WU=    0.000000   12.500000
 Enter PrismC: JobTyp=21 DoJE=F Cont=F.
 Linear combination for Coulomb/exchange, wScrn=  0.000000
 CW=    0.222036    0.777964
 WU=    0.000000   12.500000
 Linear combination for Coulomb/exchange, wScrn=  0.000000
 CW=    0.222036    0.777964
 WU=    0.000000   12.500000
 PrismC was handed    13046762 working-precision words and  3281 shell-pairs
 Enter PrismC: JobTyp=21 DoJE=F Cont=F.
 Linear combination for Coulomb/exchange, wScrn=  0.000000
 CW=    0.222036    0.777964
 WU=    0.000000   12.500000
 PrismC was handed    13046762 working-precision words and  3281 shell-pairs
 PrismC was handed    13046762 working-precision words and  3281 shell-pairs
 PrismC was handed    13046762 working-precision words and  3281 shell-pairs
 PrismC was handed    13046762 working-precision words and  3281 shell-pairs
 PrismC was handed    13046762 working-precision words and  3281 shell-pairs
 PrismC was handed    13046762 working-precision words and  3281 shell-pairs
 PrismC was handed    13046762 working-precision words and  3281 shell-pairs
 PrismC was handed    13046762 working-precision words and  3281 shell-pairs
 PrismC was handed    13046762 working-precision words and  3281 shell-pairs
 PrismC was handed    13046762 working-precision words and  3281 shell-pairs
 PrismC was handed    13046762 working-precision words and  3281 shell-pairs
 PrismC was handed    13046762 working-precision words and  3281 shell-pairs
 PrismC was handed    13046762 working-precision words and  3281 shell-pairs
 PrismC was handed    13046762 working-precision words and  3281 shell-pairs
 PrismC was handed    13046762 working-precision words and  3281 shell-pairs
 Enter PrismC: JobTyp=21 DoJE=F Cont=F.
 Linear combination for Coulomb/exchange, wScrn=  0.000000
 CW=    0.222036    0.777964
 WU=    0.000000   12.500000
 PrismC was handed    13046762 working-precision words and  3281 shell-pairs
 PrismC was handed    13046762 working-precision words and  3281 shell-pairs
 PrismC was handed    13046762 working-precision words and  3281 shell-pairs
 PrismC was handed    13046762 working-precision words and  3281 shell-pairs
 PrismC was handed    13046762 working-precision words and  3281 shell-pairs
 PrismC was handed    13046762 working-precision words and  3281 shell-pairs
 PrismC was handed    13046762 working-precision words and  3281 shell-pairs
 PrismC was handed    13046762 working-precision words and  3281 shell-pairs
 PrismC was handed    13046762 working-precision words and  3281 shell-pairs
 PrismC was handed    13046762 working-precision words and  3281 shell-pairs
 PrismC was handed    13046762 working-precision words and  3281 shell-pairs
 IPart=  8 NShTot=      142882 NShNF=      142882 NShFF=           0 NBatch=        1486 AvBLen=        96.2
 IPart= 18 NShTot=      151700 NShNF=      151700 NShFF=           0 NBatch=        1702 AvBLen=        89.1
 IPart= 10 NShTot=      149456 NShNF=      149456 NShFF=           0 NBatch=        1386 AvBLen=       107.8
 IPart=  0 NShTot=      139390 NShNF=      139390 NShFF=           0 NBatch=        1329 AvBLen=       104.9
 IPart=  7 NShTot=      148787 NShNF=      148787 NShFF=           0 NBatch=        1535 AvBLen=        96.9
 IPart= 20 NShTot=      128438 NShNF=      128438 NShFF=           0 NBatch=        1443 AvBLen=        89.0
 IPart= 23 NShTot=      154624 NShNF=      154624 NShFF=           0 NBatch=        1522 AvBLen=       101.6
 IPart=  5 NShTot=      148905 NShNF=      148905 NShFF=           0 NBatch=        1437 AvBLen=       103.6
 IPart= 25 NShTot=      130302 NShNF=      130302 NShFF=           0 NBatch=        1551 AvBLen=        84.0
 IPart= 29 NShTot=      135070 NShNF=      135070 NShFF=           0 NBatch=        1541 AvBLen=        87.7
 IPart=  2 NShTot=      143371 NShNF=      143371 NShFF=           0 NBatch=        1598 AvBLen=        89.7
 IPart= 14 NShTot=      144502 NShNF=      144502 NShFF=           0 NBatch=        1462 AvBLen=        98.8
 IPart= 28 NShTot=      132397 NShNF=      132397 NShFF=           0 NBatch=        1435 AvBLen=        92.3
 IPart= 22 NShTot=      156824 NShNF=      156824 NShFF=           0 NBatch=        1639 AvBLen=        95.7
 IPart= 26 NShTot=      116496 NShNF=      116496 NShFF=           0 NBatch=        1270 AvBLen=        91.7
 IPart=  4 NShTot=      144183 NShNF=      144183 NShFF=           0 NBatch=        1392 AvBLen=       103.6
 IPart= 13 NShTot=      136637 NShNF=      136637 NShFF=           0 NBatch=        1522 AvBLen=        89.8
 IPart=  9 NShTot=      145479 NShNF=      145479 NShFF=           0 NBatch=        1596 AvBLen=        91.2
 IPart= 15 NShTot=      160109 NShNF=      160109 NShFF=           0 NBatch=        1605 AvBLen=        99.8
 IPart=  3 NShTot=      150341 NShNF=      150341 NShFF=           0 NBatch=        1547 AvBLen=        97.2
 IPart= 19 NShTot=      150774 NShNF=      150774 NShFF=           0 NBatch=        1534 AvBLen=        98.3
 IPart= 21 NShTot=       88047 NShNF=       88047 NShFF=           0 NBatch=         983 AvBLen=        89.6
 IPart= 24 NShTot=      165133 NShNF=      165133 NShFF=           0 NBatch=        1580 AvBLen=       104.5
 IPart= 27 NShTot=      150280 NShNF=      150280 NShFF=           0 NBatch=        1525 AvBLen=        98.5
 IPart= 11 NShTot=      144727 NShNF=      144727 NShFF=           0 NBatch=        1555 AvBLen=        93.1
 IPart= 12 NShTot=      147415 NShNF=      147415 NShFF=           0 NBatch=        1519 AvBLen=        97.0
 IPart=  6 NShTot=      142321 NShNF=      142321 NShFF=           0 NBatch=        1544 AvBLen=        92.2
 IPart= 30 NShTot=      144280 NShNF=      144280 NShFF=           0 NBatch=        1417 AvBLen=       101.8
 IPart=  1 NShTot=      142089 NShNF=      142089 NShFF=           0 NBatch=        1523 AvBLen=        93.3
 IPart= 16 NShTot=      153323 NShNF=      153323 NShFF=           0 NBatch=        1467 AvBLen=       104.5
 IPart= 17 NShTot=      155070 NShNF=      155070 NShFF=           0 NBatch=        1422 AvBLen=       109.1
 IPart= 31 NShTot=      121072 NShNF=      121072 NShFF=           0 NBatch=        1257 AvBLen=        96.3
 CoulSu:  NxtVal=        5922817.
 ReadGW:  IGet=0 IStart=           1 Next=           1 LGW=           0.
 Remaining memory in FofDFT      399.87 Mw
 CkSvGd:  ISavGI=        -1 IRadAn=       5 IRASav=       5 ISavGd=        -1.
 CalDSu:  NPrtUS=  32 ThrOK=T IAlg=1 NPAlg=2 DoDPD=T LenP=       33930 LenD1P=             0.
 IPart=  0 IRanGd=          0 ScrnBf=T ScrnGd=T RCrit=4.00D+00 DoMicB=T.
 IPart= 29         5626 of         6230 points in       7 batches and       15 microbatches, Max-NSigAt=       8 Max-NSgAt2=       8
 IPart= 19         5997 of         6902 points in       8 batches and       31 microbatches, Max-NSigAt=       8 Max-NSgAt2=       8
 IPart= 24         5355 of         6128 points in       7 batches and       36 microbatches, Max-NSigAt=       8 Max-NSgAt2=       8
 IPart=  6         4815 of         5324 points in       5 batches and       18 microbatches, Max-NSigAt=       8 Max-NSgAt2=       8
 IPart= 27         5550 of         6326 points in       7 batches and       29 microbatches, Max-NSigAt=       8 Max-NSgAt2=       8
 IPart= 18         5262 of         5708 points in       7 batches and       34 microbatches, Max-NSigAt=       8 Max-NSgAt2=       8
 IPart= 13         4929 of         5694 points in       6 batches and       16 microbatches, Max-NSigAt=       8 Max-NSgAt2=       8
 IPart=  8         4703 of         5118 points in       6 batches and       45 microbatches, Max-NSigAt=       8 Max-NSgAt2=       8
 IPart= 25         5116 of         5524 points in       6 batches and       24 microbatches, Max-NSigAt=       8 Max-NSgAt2=       8
 IPart=  1         5029 of         5490 points in       7 batches and       53 microbatches, Max-NSigAt=       8 Max-NSgAt2=       8
 IPart=  3         4235 of         4976 points in       7 batches and       82 microbatches, Max-NSigAt=       8 Max-NSgAt2=       8
 IPart=  2         6348 of         7010 points in       9 batches and       17 microbatches, Max-NSigAt=       8 Max-NSgAt2=       8
 IPart= 15         5607 of         6368 points in       8 batches and       56 microbatches, Max-NSigAt=       8 Max-NSgAt2=       8
 IPart= 22         5095 of         5524 points in       6 batches and       31 microbatches, Max-NSigAt=       8 Max-NSgAt2=       8
 IPart= 26         4785 of         5000 points in       5 batches and       12 microbatches, Max-NSigAt=       8 Max-NSgAt2=       8
 IPart= 11         6284 of         7148 points in       9 batches and       24 microbatches, Max-NSigAt=       8 Max-NSgAt2=       8
 IPart= 17         4913 of         5102 points in       5 batches and       23 microbatches, Max-NSigAt=       8 Max-NSgAt2=       8
 IPart= 10         5612 of         6656 points in      10 batches and       52 microbatches, Max-NSigAt=       8 Max-NSgAt2=       8
 IPart=  7         5769 of         6434 points in       8 batches and       50 microbatches, Max-NSigAt=       8 Max-NSgAt2=       8
 IPart= 31         4856 of         5146 points in       5 batches and       14 microbatches, Max-NSigAt=       8 Max-NSgAt2=       8
 IPart=  9         4900 of         5118 points in       5 batches and       28 microbatches, Max-NSigAt=       8 Max-NSgAt2=       8
 IPart= 23         5567 of         5984 points in       6 batches and       36 microbatches, Max-NSigAt=       8 Max-NSgAt2=       8
 IPart= 12         5045 of         5310 points in       5 batches and       24 microbatches, Max-NSigAt=       8 Max-NSgAt2=       8
 IPart=  5         5059 of         5352 points in       5 batches and       30 microbatches, Max-NSigAt=       8 Max-NSgAt2=       8
 IPart=  4         5527 of         6282 points in       8 batches and       66 microbatches, Max-NSigAt=       8 Max-NSgAt2=       8
 IPart= 28         5433 of         5524 points in       5 batches and       15 microbatches, Max-NSigAt=       8 Max-NSgAt2=       8
 IPart= 21         4665 of         4926 points in       5 batches and       31 microbatches, Max-NSigAt=       8 Max-NSgAt2=       8
 IPart= 30         5512 of         5696 points in       6 batches and       29 microbatches, Max-NSigAt=       8 Max-NSgAt2=       8
 IPart=  0         5590 of         5964 points in       6 batches and       44 microbatches, Max-NSigAt=       8 Max-NSgAt2=       8
 IPart= 20         5103 of         5324 points in       5 batches and       25 microbatches, Max-NSigAt=       8 Max-NSgAt2=       8
 IPart= 16         6044 of         6600 points in       7 batches and       20 microbatches, Max-NSigAt=       8 Max-NSgAt2=       8
 IPart= 14         4995 of         5324 points in       5 batches and       31 microbatches, Max-NSigAt=       8 Max-NSgAt2=       8
 Forces at end of L703
 I=    0 X=   2.507360169712D-05 Y=  -1.323491485916D-05 Z=   3.618100446801D-06
 I=    1 X=  -1.012646705923D-02 Y=  -2.132944022116D-02 Z=  -6.618568818975D-03
 I=    2 X=   4.365640222693D-03 Y=   9.197734025535D-03 Z=  -1.011694527460D-03
 I=    3 X=   8.077322539819D-04 Y=   9.218017473919D-03 Z=   4.373032632252D-03
 I=    4 X=   6.637235395923D-03 Y=   6.453130953158D-03 Z=   4.373216073340D-03
 I=    5 X=   1.002950111101D-02 Y=   2.133271615403D-02 Z=   6.754499207340D-03
 I=    6 X=  -7.611754626304D-04 Y=  -9.201280950938D-03 Z=  -4.409336379084D-03
 I=    7 X=  -6.608642005887D-03 Y=  -6.453905401580D-03 Z=  -4.416416374055D-03
 I=    8 X=  -4.343824455873D-03 Y=  -9.216972032950D-03 Z=   9.552681866372D-04
 FrcOut:
 IF    =    45 IFX   =    69 IFXYZ =    93
 IFFX  =   117 IFFFX =   417 IFLen =    24
 IFFLen=   300 IFFFLn=     0 IEDerv=   417
 LEDerv=  1205 IFroze=  1904 ICStrt=108261
 FCEst1:  Generated internal coordinate force constants:
                1             2             3             4             5 
      1  0.580689D+00
      2 -0.128711D+00  0.370612D+00
      3 -0.406177D-01 -0.855682D-01  0.615101D+00
      4 -0.843766D-01  0.969333D-02 -0.853956D-02  0.623772D-01
      5  0.969329D-02 -0.685506D-01 -0.179919D-01 -0.428458D-02  0.553790D-01
      6  0.000000D+00  0.000000D+00 -0.355866D+00  0.000000D+00  0.000000D+00
      7 -0.318031D+00  0.375434D-02  0.982392D-01  0.149092D-01  0.131785D-03
      8 -0.128297D-01 -0.685166D-01  0.159019D-01  0.340016D-03  0.983231D-03
      9  0.897086D-01  0.892973D-02 -0.122084D+00  0.354617D-01  0.313453D-03
     10 -0.163812D+00  0.113021D+00 -0.497909D-01  0.631876D-02 -0.667019D-02
     11  0.129604D+00 -0.222736D+00  0.861686D-01 -0.687846D-02  0.957370D-02
     12 -0.497990D-01  0.751510D-01 -0.122083D+00 -0.221775D-01  0.276727D-01
     13 -0.186867D-01  0.406291D-02  0.128439D-02  0.771335D-03  0.112972D-02
     14  0.406006D-02 -0.120522D-01  0.269821D-02  0.112976D-02  0.261469D-02
     15  0.128259D-02  0.269630D-02 -0.197665D-01 -0.474475D-02 -0.999420D-02
     16 -0.157944D-02  0.438436D-03  0.987625D-03 -0.187469D-03  0.889986D-04
     17 -0.877688D-02  0.261799D-02  0.491214D-02  0.229746D-03 -0.109069D-03
     18 -0.375511D-02  0.104228D-02  0.234839D-02 -0.446413D-03  0.211929D-03
     19  0.502252D-02 -0.338768D-02  0.318221D-02 -0.296569D-03  0.140792D-03
     20  0.582592D-02 -0.398661D-02  0.387218D-02  0.000000D+00  0.000000D+00
     21  0.318074D-02 -0.225053D-02  0.234873D-02  0.446299D-03 -0.211874D-03
     22  0.773658D-03  0.112882D-02 -0.474525D-02  0.484074D-03 -0.229807D-03
     23  0.113388D-02  0.261228D-02 -0.999281D-02 -0.229885D-03  0.109135D-03
     24  0.000000D+00  0.000000D+00  0.186018D-05  0.000000D+00  0.000000D+00
                6             7             8             9            10 
      6  0.355866D+00
      7  0.000000D+00  0.311679D+00
      8  0.000000D+00 -0.166181D-02  0.553604D-01
      9  0.000000D+00 -0.104816D+00 -0.395262D-02  0.106441D+00
     10  0.000000D+00 -0.697887D-02  0.229258D-01 -0.165993D-01  0.159449D+00
     11  0.000000D+00 -0.266229D-02  0.955701D-02 -0.633228D-02 -0.125888D+00
     12  0.000000D+00  0.558875D-02 -0.168641D-01  0.132929D-01  0.632071D-01
     13  0.000000D+00 -0.157871D-02 -0.877434D-02 -0.375499D-02  0.502269D-02
     14  0.000000D+00  0.437947D-03  0.261595D-02  0.104166D-02 -0.338807D-02
     15  0.000000D+00  0.988079D-03  0.491477D-02  0.235016D-02  0.318321D-02
     16  0.000000D+00  0.726566D-04 -0.889783D-04  0.172814D-03  0.114864D-03
     17  0.000000D+00 -0.890413D-04  0.109044D-03 -0.211786D-03 -0.140767D-03
     18  0.000000D+00  0.173014D-03 -0.211881D-03  0.411516D-03  0.273522D-03
     19  0.000000D+00  0.114940D-03 -0.140760D-03  0.273386D-03  0.181711D-03
     20  0.000000D+00  0.000000D+00  0.000000D+00  0.000000D+00  0.000000D+00
     21  0.000000D+00 -0.172970D-03  0.211826D-03 -0.411411D-03 -0.273452D-03
     22  0.000000D+00 -0.187610D-03  0.229755D-03 -0.446233D-03 -0.296596D-03
     23  0.000000D+00  0.890955D-04 -0.109110D-03  0.211915D-03  0.140853D-03
     24  0.000000D+00  0.000000D+00  0.000000D+00  0.000000D+00  0.000000D+00
               11            12            13            14            15 
     11  0.207591D+00
     12 -0.837089D-01  0.106441D+00
     13  0.582475D-02  0.318064D-02  0.580907D+00
     14 -0.398618D-02 -0.225070D-02 -0.128763D+00  0.370572D+00
     15  0.387259D-02  0.234943D-02 -0.406926D-01 -0.854406D-01  0.614923D+00
     16  0.000000D+00 -0.172814D-03 -0.318196D+00  0.380878D-02  0.982175D-01
     17  0.000000D+00  0.211785D-03 -0.127830D-01 -0.685384D-01  0.158750D-01
     18  0.000000D+00 -0.411515D-03  0.896846D-01  0.890752D-02 -0.122060D+00
     19  0.000000D+00 -0.273385D-03 -0.163872D+00  0.113032D+00 -0.497929D-01
     20  0.000000D+00  0.000000D+00  0.129612D+00 -0.222704D+00  0.861633D-01
     21  0.000000D+00  0.411410D-03 -0.497920D-01  0.751409D-01 -0.122052D+00
     22  0.000000D+00  0.446231D-03 -0.843676D-01  0.968203D-02 -0.844123D-02
     23  0.000000D+00 -0.211914D-03  0.969084D-02 -0.685221D-01 -0.180873D-01
     24  0.000000D+00  0.000000D+00  0.898968D-04 -0.970227D-04 -0.355744D+00
               16            17            18            19            20 
     16  0.311846D+00
     17 -0.171732D-02  0.553739D-01
     18 -0.104792D+00 -0.392130D-02  0.106402D+00
     19 -0.696938D-02  0.229262D-01 -0.166039D-01  0.159499D+00
     20 -0.266032D-02  0.956314D-02 -0.633842D-02 -0.125901D+00  0.207559D+00
     21  0.558187D-02 -0.168657D-01  0.132975D-01  0.632101D-01 -0.836914D-01
     22  0.148983D-01  0.351117D-03  0.354664D-01  0.632013D-02 -0.687659D-02
     23  0.130442D-03  0.983390D-03  0.309981D-03 -0.666979D-02  0.956806D-02
     24  0.507548D-05  0.000000D+00  0.120827D-04  0.450274D-05 -0.570661D-05
               21            22            23            24 
     21  0.106423D+00
     22 -0.221805D-01  0.623757D-01
     23  0.276666D-01 -0.428543D-02  0.553584D-01
     24 -0.172904D-04 -0.993447D-04  0.103477D-03  0.355747D+00
 Quadrupole    =-1.89180013D-01 4.87975487D-01-2.98795474D-01
                 4.14872903D-01 1.30242743D-01 2.75483979D-01
 -------------------------------------------------------------------
 Center     Atomic                   Forces (Hartrees/Bohr)
 Number     Number              X              Y              Z
 -------------------------------------------------------------------
      1        6           0.010126467    0.021329440    0.006618569
      2        1          -0.004365640   -0.009197734    0.001011695
      3        1          -0.000807732   -0.009218017   -0.004373033
      4        1          -0.006637235   -0.006453131   -0.004373216
      5        6          -0.010029501   -0.021332716   -0.006754499
      6        1           0.000761175    0.009201281    0.004409336
      7        1           0.006608642    0.006453905    0.004416416
      8        1           0.004343824    0.009216972   -0.000955268
 -------------------------------------------------------------------
 Cartesian Forces:  Max     0.021332716 RMS     0.008734736
 From PutF, contents of force:
   1    0.1011694527D-02
   2    0.9502575008D-03
   3    0.9544151197D-03
   4    0.8895013330D-02
   5    0.8891847956D-02
   6   -0.1740688840D-01
   7    0.1007870757D-02
   8    0.9550139511D-03
   9    0.9535409691D-03
  10    0.8908809416D-02
  11    0.8891755364D-02
  12    0.1739798837D-01
  13    0.4686964879D-05
  14   -0.2776786772D-05
  15   -0.6733021289D-05
  16   -0.3074522737D-04
  17    0.8788432814D-06
  18   -0.4075462272D-02
 -----------------------------------------------------------------------------------------------
                       Internal Coordinate Forces (Hartree/Bohr or radian)
  Cent   Atom   N1       Length/X         N2         Alpha/Y        N3         Beta/Z          J
 -----------------------------------------------------------------------------------------------
      1  C 
      2  H        1   0.001012(     1)
      3  H        1   0.000950(     2)      2   0.008895(     8)
      4  H        1   0.000954(     3)      2   0.008892(     9)      3  -0.017407(    14)     0
      5  C        1  -0.004075(     4)      2   0.000001(    10)      3  -0.000031(    15)     0
      6  H        5   0.001008(     5)      1   0.000005(    11)      2  -0.000007(    16)     0
      7  H        5   0.000955(     6)      6   0.008909(    12)      1  -0.000003(    17)     0
      8  H        5   0.000954(     7)      6   0.008892(    13)      7   0.017398(    18)     0
 -----------------------------------------------------------------------------------------------
 Internal  Forces:  Max     0.017406888 RMS     0.007244121
 Force constants in Cartesian coordinates: 
                1             2             3             4             5 
      1  0.580689D+00
      2 -0.128711D+00  0.370612D+00
      3 -0.406177D-01 -0.855682D-01  0.615101D+00
      4 -0.843766D-01  0.969333D-02 -0.853956D-02  0.623772D-01
      5  0.969329D-02 -0.685506D-01 -0.179919D-01 -0.428458D-02  0.553790D-01
      6  0.000000D+00  0.000000D+00 -0.355866D+00  0.000000D+00  0.000000D+00
      7 -0.318031D+00  0.375434D-02  0.982392D-01  0.149092D-01  0.131785D-03
      8 -0.128297D-01 -0.685166D-01  0.159019D-01  0.340016D-03  0.983231D-03
      9  0.897086D-01  0.892973D-02 -0.122084D+00  0.354617D-01  0.313453D-03
     10 -0.163812D+00  0.113021D+00 -0.497909D-01  0.631876D-02 -0.667019D-02
     11  0.129604D+00 -0.222736D+00  0.861686D-01 -0.687846D-02  0.957370D-02
     12 -0.497990D-01  0.751510D-01 -0.122083D+00 -0.221775D-01  0.276727D-01
     13 -0.186867D-01  0.406291D-02  0.128439D-02  0.771335D-03  0.112972D-02
     14  0.406006D-02 -0.120522D-01  0.269821D-02  0.112976D-02  0.261469D-02
     15  0.128259D-02  0.269630D-02 -0.197665D-01 -0.474475D-02 -0.999420D-02
     16 -0.157944D-02  0.438436D-03  0.987625D-03 -0.187469D-03  0.889986D-04
     17 -0.877688D-02  0.261799D-02  0.491214D-02  0.229746D-03 -0.109069D-03
     18 -0.375511D-02  0.104228D-02  0.234839D-02 -0.446413D-03  0.211929D-03
     19  0.502252D-02 -0.338768D-02  0.318221D-02 -0.296569D-03  0.140792D-03
     20  0.582592D-02 -0.398661D-02  0.387218D-02  0.000000D+00  0.000000D+00
     21  0.318074D-02 -0.225053D-02  0.234873D-02  0.446299D-03 -0.211874D-03
     22  0.773658D-03  0.112882D-02 -0.474525D-02  0.484074D-03 -0.229807D-03
     23  0.113388D-02  0.261228D-02 -0.999281D-02 -0.229885D-03  0.109135D-03
     24  0.000000D+00  0.000000D+00  0.186018D-05  0.000000D+00  0.000000D+00
                6             7             8             9            10 
      6  0.355866D+00
      7  0.000000D+00  0.311679D+00
      8  0.000000D+00 -0.166181D-02  0.553604D-01
      9  0.000000D+00 -0.104816D+00 -0.395262D-02  0.106441D+00
     10  0.000000D+00 -0.697887D-02  0.229258D-01 -0.165993D-01  0.159449D+00
     11  0.000000D+00 -0.266229D-02  0.955701D-02 -0.633228D-02 -0.125888D+00
     12  0.000000D+00  0.558875D-02 -0.168641D-01  0.132929D-01  0.632071D-01
     13  0.000000D+00 -0.157871D-02 -0.877434D-02 -0.375499D-02  0.502269D-02
     14  0.000000D+00  0.437947D-03  0.261595D-02  0.104166D-02 -0.338807D-02
     15  0.000000D+00  0.988079D-03  0.491477D-02  0.235016D-02  0.318321D-02
     16  0.000000D+00  0.726566D-04 -0.889783D-04  0.172814D-03  0.114864D-03
     17  0.000000D+00 -0.890413D-04  0.109044D-03 -0.211786D-03 -0.140767D-03
     18  0.000000D+00  0.173014D-03 -0.211881D-03  0.411516D-03  0.273522D-03
     19  0.000000D+00  0.114940D-03 -0.140760D-03  0.273386D-03  0.181711D-03
     20  0.000000D+00  0.000000D+00  0.000000D+00  0.000000D+00  0.000000D+00
     21  0.000000D+00 -0.172970D-03  0.211826D-03 -0.411411D-03 -0.273452D-03
     22  0.000000D+00 -0.187610D-03  0.229755D-03 -0.446233D-03 -0.296596D-03
     23  0.000000D+00  0.890955D-04 -0.109110D-03  0.211915D-03  0.140853D-03
     24  0.000000D+00  0.000000D+00  0.000000D+00  0.000000D+00  0.000000D+00
               11            12            13            14            15 
     11  0.207591D+00
     12 -0.837089D-01  0.106441D+00
     13  0.582475D-02  0.318064D-02  0.580907D+00
     14 -0.398618D-02 -0.225070D-02 -0.128763D+00  0.370572D+00
     15  0.387259D-02  0.234943D-02 -0.406926D-01 -0.854406D-01  0.614923D+00
     16  0.000000D+00 -0.172814D-03 -0.318196D+00  0.380878D-02  0.982175D-01
     17  0.000000D+00  0.211785D-03 -0.127830D-01 -0.685384D-01  0.158750D-01
     18  0.000000D+00 -0.411515D-03  0.896846D-01  0.890752D-02 -0.122060D+00
     19  0.000000D+00 -0.273385D-03 -0.163872D+00  0.113032D+00 -0.497929D-01
     20  0.000000D+00  0.000000D+00  0.129612D+00 -0.222704D+00  0.861633D-01
     21  0.000000D+00  0.411410D-03 -0.497920D-01  0.751409D-01 -0.122052D+00
     22  0.000000D+00  0.446231D-03 -0.843676D-01  0.968203D-02 -0.844123D-02
     23  0.000000D+00 -0.211914D-03  0.969084D-02 -0.685221D-01 -0.180873D-01
     24  0.000000D+00  0.000000D+00  0.898968D-04 -0.970227D-04 -0.355744D+00
               16            17            18            19            20 
     16  0.311846D+00
     17 -0.171732D-02  0.553739D-01
[...]
     4   1    -0.36   0.01  -0.21    -0.35   0.01  -0.20     0.23  -0.01   0.12
     5   6     0.00  -0.00  -0.00    -0.00   0.00   0.00     0.03  -0.00   0.07
     6   1     0.35   0.00  -0.20    -0.35  -0.00   0.21     0.09   0.00  -0.04
     7   1    -0.35   0.01  -0.20     0.36  -0.01   0.20    -0.40   0.01  -0.22
     8   1     0.00   0.00   0.40    -0.00  -0.00  -0.41    -0.00  -0.00  -0.56
                     16                     17                     18
                      A                      A                      A
 Frequencies --   3304.9646              3305.4007              3305.5045
 Red. masses --      1.1186                 1.1185                 1.1185
 Frc consts  --      7.1989                 7.2003                 7.2005
 IR Inten    --  0.6529                  6.611                  6.893    
  Atom  AN      X      Y      Z        X      Y      Z        X      Y      Z
     1   6    -0.07   0.00   0.03     0.04  -0.00   0.07     0.07  -0.00  -0.00
     2   1    -0.01   0.00  -0.26     0.01   0.00  -0.53     0.01  -0.00   0.00
     3   1     0.52  -0.00  -0.30     0.02  -0.00   0.00    -0.40   0.00   0.23
     4   1     0.29  -0.01   0.18    -0.45   0.01  -0.25    -0.39   0.01  -0.23
     5   6     0.07  -0.00   0.01    -0.01  -0.00   0.07     0.07  -0.00  -0.03
     6   1    -0.36  -0.00   0.22     0.27   0.00  -0.15    -0.53  -0.00   0.31
     7   1    -0.44   0.01  -0.25    -0.20   0.00  -0.10    -0.32   0.01  -0.19
     8   1     0.01  -0.00  -0.08    -0.00  -0.00  -0.54     0.01   0.00   0.23

 -------------------
 - Thermochemistry -
 -------------------
 Temperature   298.150 Kelvin.  Pressure   1.00000 Atm.
 Atom     1 has atomic number  6 and mass  12.00000
 Atom     2 has atomic number  1 and mass   1.00783
 Atom     3 has atomic number  1 and mass   1.00783
 Atom     4 has atomic number  1 and mass   1.00783
 Atom     5 has atomic number  6 and mass  12.00000
 Atom     6 has atomic number  1 and mass   1.00783
 Atom     7 has atomic number  1 and mass   1.00783
 Atom     8 has atomic number  1 and mass   1.00783
 Molecular mass:    30.04695 amu.
 Principal axes and moments of inertia in atomic units:
                           1         2         3
     Eigenvalues --    25.09951 360.92889 360.93279
           X            0.00875   0.08781   0.99610
           Y            0.99992  -0.00980  -0.00792
           Z            0.00907   0.99609  -0.08789
 This molecule is an asymmetric top.
 Rotational symmetry number  1.
 Rotational temperatures (Kelvin)      3.45082     0.23997     0.23997
 Rotational constants (GHZ):          71.90345     5.00027     5.00021
    1 imaginary frequencies ignored.
 Zero-point vibrational energy     160553.5 (Joules/Mol)
                                   38.37322 (Kcal/Mol)
 Warning -- explicit consideration of   7 degrees of freedom as
           vibrations may cause significant error
 Vibrational temperatures:     19.84   209.35   232.96   240.99   260.64
          (Kelvin)            764.03   768.57  2026.51  2026.91  2029.42
                             2029.81  4494.63  4494.93  4754.96  4755.10
                             4755.73  4755.88
 
 Zero-point correction=                           0.061152 (Hartree/Particle)
 Thermal correction to Energy=                    0.067806
 Thermal correction to Enthalpy=                  0.068751
 Thermal correction to Gibbs Free Energy=         0.031936
 Sum of electronic and zero-point Energies=            -79.620055
 Sum of electronic and thermal Energies=               -79.613400
 Sum of electronic and thermal Enthalpies=             -79.612456
 Sum of electronic and thermal Free Energies=          -79.649270
 
                     E (Thermal)             CV                S
                      KCal/Mol        Cal/Mol-Kelvin    Cal/Mol-Kelvin
 Total                   42.549             18.258             77.483
 Electronic               0.000              0.000              0.000
 Translational            0.889              2.981             36.134
 Rotational               0.889              2.981             22.707
 Vibrational             40.772             12.297             18.642
 Vibration     1          0.593              1.986              7.373
 Vibration     2          0.617              1.908              2.730
 Vibration     3          0.622              1.889              2.527
 Vibration     4          0.624              1.882              2.463
 Vibration     5          0.630              1.865              2.316
 Vibration     6          0.886              1.181              0.585
 Vibration     7          0.889              1.174              0.578
                       Q            Log10(Q)             Ln(Q)
 Total Bot       0.204400D-14        -14.689518        -33.823866
 Total V=0       0.274291D+14         13.438212         30.942627
 Vib (Bot)       0.154249D-25        -25.811777        -59.433813
 Vib (Bot)    1  0.150236D+02          1.176773          2.709621
 Vib (Bot)    2  0.139531D+01          0.144671          0.333118
 Vib (Bot)    3  0.124785D+01          0.096163          0.221424
 Vib (Bot)    4  0.120414D+01          0.080678          0.185768
 Vib (Bot)    5  0.110827D+01          0.044647          0.102803
 Vib (Bot)    6  0.300881D+00         -0.521605         -1.201041
 Vib (Bot)    7  0.298223D+00         -0.525459         -1.209915
 Vib (V=0)       0.206992D+03          2.315953          5.332679
 Vib (V=0)    1  0.155319D+02          1.191225          2.742896
 Vib (V=0)    2  0.198219D+01          0.297146          0.684204
 Vib (V=0)    3  0.184430D+01          0.265831          0.612098
 Vib (V=0)    4  0.180382D+01          0.256194          0.589909
 Vib (V=0)    5  0.171584D+01          0.234477          0.539903
 Vib (V=0)    6  0.108355D+01          0.034849          0.080242
 Vib (V=0)    7  0.108218D+01          0.034301          0.078980
 Electronic      0.100000D+01          0.000000          0.000000
 Translational   0.647375D+07          6.811156         15.683266
 Rotational      0.204693D+05          4.311103          9.926682
 -------------------------------------------------------------------
 Center     Atomic                   Forces (Hartrees/Bohr)
 Number     Number              X              Y              Z
 -------------------------------------------------------------------
      1        6           0.000011791   -0.003124311   -0.000048343
      2        1          -0.000019296   -0.000001746    0.000009539
      3        1          -0.000012789    0.000007314   -0.000004888
      4        1          -0.000006319   -0.000005601    0.000008741
      5        6           0.000057981    0.003124011    0.000067723
      6        1          -0.000019705    0.000000096   -0.000014909
      7        1          -0.000001587   -0.000010118   -0.000016187
      8        1          -0.000010076    0.000010354   -0.000001676
 -------------------------------------------------------------------
 Cartesian Forces:  Max     0.003124311 RMS     0.000902156
 -----------------------------------------------------------------------------------------------
                       Internal Coordinate Forces (Hartree/Bohr or radian)
  Cent   Atom   N1       Length/X         N2         Alpha/Y        N3         Beta/Z          J
 -----------------------------------------------------------------------------------------------
      1  C 
      2  H        1   0.000010(     1)
      3  H        1  -0.000009(     2)      2   0.000022(     8)
      4  H        1   0.000001(     3)      2  -0.000022(     9)      3  -0.000010(    14)     0
      5  C        1  -0.003125(     4)      2  -0.000016(    10)      3   0.000024(    15)     0
      6  H        5   0.000009(     5)      1   0.000000(    11)      2  -0.000001(    16)     0
      7  H        5  -0.000009(     6)      6   0.000027(    12)      1   0.000037(    17)     0
      8  H        5   0.000002(     7)      6  -0.000020(    13)      7   0.000018(    18)     0
 -----------------------------------------------------------------------------------------------
 Internal  Forces:  Max     0.003124644 RMS     0.000736677

 GradGradGradGradGradGradGradGradGradGradGradGradGradGradGradGradGradGrad
 Berny optimization.
 Search for a local minimum.
 Step number   1 out of a maximum of    2
 All quantities printed in internal units (Hartrees-Bohrs-Radians)
 Second derivative matrix not updated -- analytic derivatives used.
 The second derivative matrix:
                          R1        R2        R3        A2        A3
           R1           0.37206
           R2           0.00005   0.37211
           R3           0.00005   0.00006   0.37216
           A2           0.01586   0.00009  -0.01589   0.18893
           A3           0.01586  -0.01590   0.00008   0.09442   0.18892
           D3           0.00020  -0.00024  -0.00049   0.00270   0.00242
           R21          0.00003  -0.00004   0.00003   0.00000   0.00001
           R22          0.00003   0.00003  -0.00004   0.00001   0.00000
           R23         -0.00004   0.00003   0.00003  -0.00002  -0.00002
           A22          0.00002  -0.00002  -0.00000  -0.00015  -0.00028
           A23          0.00000  -0.00002   0.00001   0.00016  -0.00015
           D23          0.00007  -0.00011  -0.00011   0.00013   0.00013
           ANG2         0.00010  -0.00020   0.00010  -0.00001   0.00021
           DH3          0.00018   0.00000  -0.00018   0.00025   0.00012
           DH2         -0.00000   0.00000  -0.00000   0.00003  -0.00002
           DH1          0.00000  -0.00027   0.00027  -0.00033   0.00033
           ANG1        -0.00032   0.00016   0.00015  -0.00051  -0.00051
           BB          -0.00006  -0.00006  -0.00005  -0.00001  -0.00001
                          D3        R21       R22       R23       A22
           D3           0.01114
           R21          0.00011   0.37219
           R22         -0.00007   0.00006   0.37210
           R23          0.00011   0.00005   0.00005   0.37206
           A22         -0.00001   0.01590  -0.00006  -0.01585   0.18888
           A23          0.00012   0.01579  -0.01579   0.00002   0.09439
           D23         -0.00001  -0.00019   0.00022   0.00059  -0.00265
           ANG2        -0.00021  -0.00040   0.00016   0.00020  -0.00049
           DH3          0.00037  -0.00002  -0.00033   0.00037  -0.00045
           DH2          0.00000  -0.00019   0.00018  -0.00000   0.00007
           DH1         -0.00247  -0.00011   0.00015   0.00001  -0.00016
           ANG1        -0.00147   0.00004   0.00005  -0.00010   0.00015
           BB           0.00071  -0.00006  -0.00006  -0.00006  -0.00002
                          A23       D23      ANG2       DH3       DH2
           A23          0.18887
           D23         -0.00225   0.01176
           ANG2        -0.00046   0.00210   0.00606
           DH3          0.00034   0.00367   0.00049   0.00673
           DH2          0.00001  -0.00002  -0.00003  -0.00001  -0.00000
           DH1         -0.00027   0.00005  -0.00024   0.00020  -0.00001
           ANG1         0.00001   0.00111   0.00073   0.00130  -0.00003
           BB          -0.00001  -0.00065  -0.00001   0.00007   0.00000
                          DH1      ANG1       BB
           DH1          0.00648
           ANG1         0.00000   0.00768
           BB           0.00008   0.00007  -0.00310
 ITU=  0
     Eigenvalues ---   -0.00000   0.00424   0.00508   0.00604   0.00727
     Eigenvalues ---    0.01247   0.01464   0.09350   0.09368   0.27535
     Eigenvalues ---    0.27575   0.37220   0.37224   0.37291   0.37302
     Eigenvalues ---    0.37984   0.379911000.00000
 Eigenvalue     1 is  -3.00D-06 should be greater than     0.000000 Eigenvector:
                          DH2      ANG2      ANG1       DH1       R21
   1                    0.99998   0.00536   0.00298   0.00139   0.00053
                          R22       A22       D3        A2        A3
   1                   -0.00049  -0.00044   0.00043  -0.00026   0.00025
 Quadratic step=3.988D-01 exceeds max=3.000D-01 adjusted using Lamda=-9.902D-07.
 Angle between NR and scaled steps=   0.37 degrees.
 Angle between quadratic step and forces=  87.99 degrees.
 Linear search not attempted -- first point.
 Variable       Old X    -DE/DX   Delta X   Delta X   Delta X     New X
                                 (Linear)    (Quad)   (Total)
    R1        2.03741   0.00001   0.00000   0.00002   0.00002   2.03743
    R2        2.03749  -0.00001   0.00000  -0.00003  -0.00003   2.03745
    R3        2.03744   0.00000   0.00000   0.00002   0.00002   2.03746
    A2        2.09411   0.00002   0.00000   0.00032   0.00032   2.09443
    A3        2.09456  -0.00002   0.00000  -0.00032  -0.00032   2.09424
    D3        3.17164  -0.00001   0.00000  -0.00095  -0.00095   3.17069
   R21        2.03743   0.00001   0.00000  -0.00013  -0.00013   2.03730
   R22        2.03749  -0.00001   0.00000   0.00012   0.00012   2.03761
   R23        2.03743   0.00000   0.00000   0.00001   0.00001   2.03744
   A22        2.09384   0.00003   0.00000   0.00043   0.00043   2.09426
   A23        2.09459  -0.00002   0.00000  -0.00029  -0.00029   2.09431
   D23        3.11148   0.00002   0.00000  -0.00009  -0.00009   3.11138
   ANG2       1.57961   0.00000   0.00000  -0.00158  -0.00158   1.57803
   DH3        1.57769   0.00004   0.00000   0.00609   0.00609   1.58378
   DH2        1.03962  -0.00000   0.00000  -0.29990  -0.29990   0.73972
   DH1        1.57958   0.00002   0.00000   0.00287   0.00287   1.58245
   ANG1       1.57974  -0.00002   0.00000  -0.00414  -0.00414   1.57560
    BB        6.80301  -0.00312   0.00000   0.00000   0.00000   6.80301
         Item               Value     Threshold  Converged?
 Maximum Force            0.000037     0.000450     YES
 RMS     Force            0.000017     0.000300     YES
 Maximum Displacement     0.299902     0.001800     NO 
 RMS     Displacement     0.070714     0.001200     NO 
 Predicted change in Energy=-6.889919D-07
 GradGradGradGradGradGradGradGradGradGradGradGradGradGradGradGradGradGrad


 Test job not archived.
 1\1\GINC-NODE-6-7\Freq\UwB97XD\Aug-CC-pVTZ\C2H6\CAVALLOTTI\27-May-2023
 \1\\#N Geom=AllCheck Guess=TCheck SCRF=Check Test GenChk UwB97XD/Aug-C
 C-pVTZ Freq\\geom 0\\0,1\C\H,1,R1\H,1,R2,2,A2\H,1,R3,2,A3,3,D3,0\C,1,B
 B,2,ANG1,3,DH1,0\H,5,R21,1,ANG2,2,DH2,0\H,5,R22,6,A22,1,DH3,0\H,5,R23,
 6,A23,7,D23,0\\R1=1.0781535\R2=1.07819078\R3=1.07816822\A2=119.9835826
 4\A3=120.0097109\D3=181.72156981\R21=1.07816102\R22=1.07819311\R23=1.0
 7815981\A22=119.96817642\A23=120.01140629\D23=178.27446831\ANG2=90.504
 75874\DH3=90.39485889\DH2=59.56577816\DH1=90.50345336\ANG1=90.512657\B
 B=3.6\\Version=EM64L-G09RevD.01\HF=-79.6812062\S2=0.96523\S2-1=0.\S2A=
 0.056516\RMSD=1.346e-09\RMSF=9.022e-04\ZeroPoint=0.0611516\Thermal=0.0
 678064\Dipole=0.0000977,-0.0000277,0.0000677\DipoleDeriv=0.0134607,-0.
 0067854,0.0000041,-0.0068764,-0.4444364,-0.0044894,-0.0000145,-0.00409
 42,0.0139652,0.0420788,0.0016499,-0.0000792,0.0015882,0.1492186,-0.000
 6239,0.0000548,0.0019882,-0.0512439,-0.0279285,0.0024013,0.0399214,0.0
 001803,0.1479687,0.0018488,0.0397137,0.0004196,0.0186131,-0.027609,0.0
 02754,-0.0398506,0.0050438,0.1471571,0.0032266,-0.0397654,0.0017066,0.
 0186737,0.0134884,-0.002006,-0.0000074,-0.0019384,-0.4451793,-0.001216
 8,-0.0000307,-0.0011336,0.0140622,-0.0271384,0.0007675,0.0401949,-0.00
 139,0.1480002,0.0014573,0.040177,0.000083,0.0179455,-0.0285017,0.00068
 36,-0.0395794,0.0029097,0.147993,0.0018121,-0.0395004,0.0003881,0.0190
 924,0.0421497,0.0005351,-0.0006038,0.0004828,0.1492782,-0.0020146,-0.0
 006345,0.0006424,-0.0511081\Polar=31.1935801,0.1081164,43.3267006,0.00
 12086,0.1011388,31.187451\PG=C01 [X(C2H6)]\NImag=1\\0.62063166,-0.0089
 7240,0.02130874,0.00000780,-0.00525707,0.62077370,-0.05476732,0.000682
 81,-0.00000454,0.04550127,0.00068680,-0.00856497,-0.00022037,-0.000628
 17,0.00376359,0.00000823,0.00018750,-0.35860552,-0.00001782,-0.0003428
 7,0.37206130,-0.28271356,0.00052375,0.13158316,0.00466482,0.00015730,-
 0.00384438,0.29050216,0.00014599,-0.00838339,0.00071103,0.00012311,0.0
 0258014,0.00009836,-0.00060930,0.00355340,0.13160672,0.00051670,-0.130
 65020,0.02359619,0.00006264,-0.00677076,-0.14140020,-0.00037874,0.1271
 2804,-0.28241268,0.00774129,-0.13158836,0.00466302,-0.00021535,0.00385
 338,-0.01249448,0.00056893,-0.01373991,0.29019694,0.00809697,-0.008608
 15,0.00472806,-0.00017263,0.00258896,-0.00000096,-0.00011994,0.0026279
 3,-0.00016804,-0.00803597,0.00379786,-0.13162531,0.00452605,-0.1307824
 3,-0.02356950,0.00076232,-0.00676266,0.01372018,-0.00056293,0.01031942
 ,0.14141352,-0.00469466,0.12725267,-0.00084521,0.00003296,-0.00000183,
 0.00005517,-0.00000135,0.00000031,0.00002328,-0.00026527,0.00001693,0.
 00002725,0.00026892,-0.00001456,0.62068287,0.00004291,0.00500268,0.000
 03238,-0.00000424,-0.00023449,0.00014488,0.00012566,-0.00023904,-0.000
 07625,-0.00013095,-0.00027506,-0.00007122,-0.00275512,0.02115706,0.000
 00394,0.00002341,-0.00084277,-0.00000657,-0.00030084,0.00001577,0.0000
 1878,0.00015054,0.00004594,-0.00001642,0.00015767,0.00004608,-0.000088
 70,-0.00125712,0.62088861,0.00002494,0.00012226,0.00002041,-0.00002576
 ,-0.00007105,-0.00003399,0.00001608,0.00003501,-0.00004804,0.00002716,
 -0.00003557,0.00000141,-0.28072175,-0.00147384,0.13276185,0.28837604,-
 0.00026448,-0.00024707,0.00015687,-0.00003463,-0.00000647,-0.00006261,
 0.00003194,-0.00012387,-0.00002014,0.00003684,-0.00000612,0.00006018,-
 0.00184110,-0.00839459,0.00131426,0.00145510,0.00356606,0.00001519,-0.
 00006972,0.00004499,-0.00002697,0.00000082,0.00000976,-0.00004722,-0.0
 0001874,-0.00003971,-0.00000138,0.00006042,-0.00004184,0.13279874,0.00
 110327,-0.13272320,-0.14265997,-0.00106676,0.12933393,0.00002728,-0.00
 013142,-0.00001674,-0.00002443,0.00007092,0.00003318,0.00002794,0.0000
 3589,-0.00000277,0.00001567,-0.00003564,0.00004692,-0.28442839,0.00400
 698,-0.13049339,-0.01250800,0.00031899,-0.01357402,0.29236934,0.000266
 04,-0.00026955,0.00015238,0.00003562,-0.00000887,-0.00006348,-0.000037
 85,-0.00001001,0.00006323,-0.00003621,-0.00012104,-0.00002028,0.004366
 96,-0.00844169,0.00247706,-0.00018583,0.00263189,-0.00025235,-0.004096
 69,0.00363721,-0.00001924,-0.00007015,0.00004489,0.00002891,-0.0000019
 9,0.00000824,0.00000361,0.00006136,-0.00004146,0.00004686,-0.00001955,
 -0.00004038,-0.13053430,0.00227675,-0.12885306,0.01389759,-0.00037836,
 0.01032346,0.14023829,-0.00232769,0.12518127,0.00005490,0.00000074,0.0
 0000009,-0.00006676,0.00000091,0.00000109,-0.00002623,-0.00003435,-0.0
 0002891,-0.00002287,0.00003388,0.00002735,-0.05479321,0.00018861,-0.00
 217948,0.00481129,0.00029735,0.02349561,0.00452059,-0.00031205,-0.0236
 6171,0.04552231,-0.00000182,-0.00023829,-0.00030328,-0.00000187,-0.000
 11789,0.00003918,-0.00007156,-0.00000517,0.00000060,0.00007142,-0.0000
 0439,0.00000053,0.00019401,-0.00857487,-0.00256497,0.00015392,0.002580
 16,0.00024306,-0.00016903,0.00258206,0.00045963,-0.00017508,0.00377840
 ,0.00000267,0.00014329,0.00001734,0.00000030,0.00004029,0.00004387,-0.
 00003393,-0.00006089,0.00000873,0.00003231,-0.00006295,0.00000914,-0.0
 0217659,-0.00215267,-0.35857736,-0.00393926,-0.00000343,-0.00690739,0.
 00376853,-0.00002887,-0.00662297,0.00234597,0.00212524,0.37202866\\-0.
 00001179,0.00312431,0.00004834,0.00001930,0.00000175,-0.00000954,0.000
 01279,-0.00000731,0.00000489,0.00000632,0.00000560,-0.00000874,-0.0000
 5798,-0.00312401,-0.00006772,0.00001970,-0.00000010,0.00001491,0.00000
 159,0.00001012,0.00001619,0.00001008,-0.00001035,0.00000168\\\@


 ORIGINALITY CONSISTS NOT IN SAYING WHAT NO ONE HAS EVER SAID BEFORE, 
 BUT IN SAYING WHAT YOU THINK YOUR SELF.

                                    -- JAMES F. STEPHEN
 Job cpu time:       0 days  0 hours 53 minutes 41.2 seconds.
 File lengths (MBytes):  RWF=    106 Int=      0 D2E=      0 Chk=      7 Scr=      1
 Normal termination of Gaussian 09 at Sat May 27 09:09:10 2023.
