[Molden Format]
[Molpro variables]
_NUMVAR=  1038.000000000000    
_AVOGAD= 0.6022140760000000E+24
_BOLTZ= 0.1380649000000000E-22
_CLIGHTSI=  299792458.0000000    
_JOULE= 0.4359744722207100E-17
_JPCAL=  4.184000000000000    
_PLANCK= 0.6626070150000000E-33
_BOHR= 0.5291772109030000E-10
_ECHARG= 0.1602176634000000E-18
_ENULL= 0.8854187812800001E-11
_MU= 0.1660539066600000E-26
_EMASS= 0.9109383701500001E-30
_AMU2AU=  1822.888486217313    
_CLIGHT=  29979245800.00000    
_EV= 0.3674932217565494E-01
_KJOULE= 0.3808798847133432E-03
_KJOULE/MOL= 0.3808798847133432E-03
_CM= 0.4556335252912009E-05
_CM-1= 0.4556335252912009E-05
_DEB2SI= 0.3335640951981520E-29
_KCAL= 0.1593601437640628E-02
_KCAL/MOL= 0.1593601437640628E-02
_KELVIN= 0.3166811563455608E-05
_HERTZ= 0.1519829846057038E-15
_HZ= 0.1519829846057038E-15
_TOA= 0.5291772109030000    
_TOANG= 0.5291772109030000    
_TORAD= 0.1745329251994330E-01
_TOCM=  219474.6313631965    
_TODEBYE=  2.541746473194078    
_TOE= 0.4803204712570263E-09
_TOEV=  27.21138624598803    
_TOHERTZ=  6579683920501656.    
_TOHZ=  6579683920501656.    
_TOK=  315775.0248040668    
_TOKCAL=  627.5094740630558    
_TOKELVIN=  315775.0248040668    
_TOKJ=  2625.499639479825    
_TOKJOULE=  2625.499639479825    
_TOKG= 0.1660539066600000E-26
_ANG=  1.889726124625770    
_ANGSTROM=  1.889726124625770    
_RPAREF=  0.000000000000000    
_RPADISS=  0.000000000000000    
_IGNORE_UNDEF=  2.000000000000000    
_STRICTCHECK=  0.000000000000000    
!SEWARD=  0.000000000000000    
!MULTI=  0.000000000000000    
!DFMULTI=  0.000000000000000    
_SEW_ONEEL=  0.000000000000000    
_CPPDONE=FALSE
_DKROLL_DONE=  0.000000000000000    
_FNUC_DONE=  0.000000000000000    
_FOCKDONE=  0.000000000000000    
_GRADONE=FALSE
_HESSDONE=FALSE
_INTDONE=TRUE
_SCFDONE=FALSE
_MODUL_BLOCK=FALSE
_MODUL_CUDA=FALSE
_MODUL_SLATER=FALSE
_MODUL_MRCC=TRUE
_MODUL_NBO6=FALSE
_MODUL_NECI=FALSE
_MODUL_AIMS=TRUE
_MODUL_GECCO=FALSE
_ISWINDOWS=FALSE
_MRCC_EXEC=/software/cinetica/mrcc/bin/dmrcc
_FITC_AO_SAVED=FALSE
_FITC_MO_SAVED=FALSE
_SHARED_FS=TRUE
_LSTYP=SEWARD
_INTYP=INTS
_GEOMTYP=ZMAT
_GRADTYP=ALASKA
_DIRECT=FALSE
_DKHO= -1.000000000000000    
_FNUC=  0.000000000000000    
_SYNCM=  0.000000000000000    
_BASIS=CC-PVDZ
_ZORIENT=  1.000000000000000    
!ZORIENT=  0.000000000000000    
_NELEC=  10.00000000000000    
!SPIN=  0.000000000000000    
_QSDSTEP=  0.000000000000000    
_QSDIRC=  0.000000000000000    
_PROGRAM=RS2
_CPUSTEP= 0.8000000000000007E-01
_SYSSTEP= 0.2999999999999997E-01
_WALLSTEP= 0.2000000000000000    
!DFMP2=  0.000000000000000    
!DFHFENERG=  0.000000000000000    
!SCSGRD=  0.000000000000000    
_CPUTOT= 0.7100000000000000    
_DMX= 0.4073005275727981E-03
_DMY= 0.2544921965090599E-03
_DMZ=-0.2377815795294798    
_EMP2= -40.20635160714767    
_ENERGR= -40.07094938397965    
_ENERGU= -40.19792110212109    
_ENERGY= -40.20635160714767    
_ENERGY_METHOD=RS2
_ENERGY_BASIS=cc-pVDZ
_GEOMETRY_METHOD=
_GEOMETRY_BASIS=
_ENERGY_AVRG= -40.07094938397966    
_ENUC=  11.45796258591293    
_GRADMETHOD=  9.000000000000000    
_NMRMETHOD=  0.000000000000000    
_NMRMAGNET=  0.000000000000000    
!GRID_FREEZE= -1.000000000000000    
!NEESE_INDEX=  0.000000000000000    
_ITERATIONS=  5.000000000000000    
_LASTNELEC=  2.000000000000000    
_LASTSPIN=  0.000000000000000    
_LASTSYM=  1.000000000000000    
_MPP_PROG=  1.000000000000000    
_MSNSTATES=  0.000000000000000    
_RS2PHASE=  0.000000000000000    
_IPROC_MPP=  0.000000000000000    
_IPROC_MPPX=  0.000000000000000    
_NPROC_MPP=  4.000000000000000    
_NPROC_MPPX=  4.000000000000000    
_NPROC_SMP=  1.000000000000000    
_NUMSTEP=  0.000000000000000    
_ORBITAL=  2140.200000000000    
_PI=  3.141592653589793    
!MCACT=  2.000000000000000    
!MCCLOSED=  4.000000000000000    
!MCFREEZE=  0.000000000000000    
!MCMS2=  0.000000000000000    
!MCNEL=  2.000000000000000    
!MCNSTSYM=  1.000000000000000    
!MCSTATE=  1.000000000000000    
!MCSYM=  1.000000000000000    
!MCWEIGHT=  1.000000000000000    
_SEIG_MIN= 0.1486604345385347E-01
_SEWPROP=TRUE
_STATUS=  1.000000000000000    
_SYSTOT= 0.3200000000000000    
_VERSION=  2022002.000000000    
_WALLTOT=  1.660000000000000    
_DATE=03-Jun-23
_LASTORB=MCSCF
_OUTPUT=/home/chimica2/cavallotti/qm/barrierless/vrc_autom/folders/ch3+h/dist_2.6/molpro.out
_PGROUP=C1
_TIME=09:00:58
_LIBMOL=/software/cinetica/molpro_2022.2/lib/
_VIGRDC=  0.000000000000000    
!VIBCNT=  0.000000000000000    
!RGHFCNT=  0.000000000000000    
!SURFREC=  0.000000000000000    
!XSURFREC=  0.000000000000000    
!XPOLYREC=  0.000000000000000    
!ROTREC=  0.000000000000000    
!POLYREC=  0.000000000000000    
!DIPREC=  0.000000000000000    
!DIP4DREC=  0.000000000000000    
!DIPROT=  0.000000000000000    
!DIP4DROT=  0.000000000000000    
!PTREC=  0.000000000000000    
!PT4DREC=  0.000000000000000    
!VSCFREC=  0.000000000000000    
!VCIREC=  0.000000000000000    
!PVCIREC=  0.000000000000000    
!VMP2REC=  0.000000000000000    
!VMCSCFREC=  0.000000000000000    
!VMRCIREC=  0.000000000000000    
!VIBSTATEREC=  0.000000000000000    
!VIBSTATECNT=  0.000000000000000    
!VIBINFO=  0.000000000000000    
!GAREC=  0.000000000000000    
!MCORB=  21402.00000000000    
!DEFCORE=  1.000000000000000    
!SCORE=  0.000000000000000    
!NEWMOL= -1.000000000000000    
!NEWSYM= -1.000000000000000    
_SLFILES=slscratch
_NGSSTO=  9.000000000000000    
_SIN=SIN
_COS=COS
_TAN=TAN
_ACOS=ACOS
_ASIN=ASIN
_ATAN=ATAN
_COSH=COSH
_SINH=SINH
_TANH=TANH
_ABS=ABS
_MOD=MOD
_ERF=ERF
_REFC=REFC
_ERFC=ERFC
_HYPOT=HYPOT
_J0=J0
_J1=J1
_JN=JN
_GAMMA=GAMMA
_LGAMMA=LGAMMA
_Y0=Y0
_Y1=Y1
_YN=YN
_EXP=EXP
_LOG=LOG
_LOG10=LOG10
_SQRT=SQRT
_INT=INT
_NINT=NINT
_MAX=MAX
_MIN=MIN
_COSMO=  0.000000000000000    
_COSMOIT=  0.000000000000000    
_COSMOES=  0.000000000000000    
_COSMOEDS=  0.000000000000000    
_COSMOEC=  0.000000000000000    
_COSMOEDCORR=  0.000000000000000    
_FEPSI=  1.000000000000000    
_SL_IsMM=  0.000000000000000    
_SL_NSYM=  1.000000000000000    
_SL_System_BitSw=  0.000000000000000    
_SL_Unique_atoms=  0.000000000000000    
_SL_GRAD=  0.000000000000000    
_SL_MAXUPD_Hess=  5.000000000000000    
_SL_N_PRINT_COD=  5.000000000000000    
_SL_PRINT_CODES=  0.000000000000000    
_SL_BasType=  0.000000000000000    
_SL_Energy_Pred=  0.000000000000000    
_SL_New_Coords=  0.000000000000000    
_SL_Total_Nuclea=  0.000000000000000    
_SL_Highest_Mltp=  0.000000000000000    
_SL_Ref_Geom=  0.000000000000000    
_SL_Symmetry_ope=  1.000000000000000    
_SL_agrad=  0.000000000000000    
_SL_GrdMax=  0.000000000000000    
_SL_GrdNorm=  0.000000000000000    
_SL_GrdRMS=  0.000000000000000    
_SL_Hss_Q=  0.000000000000000    
_SL_Hss_X=  0.000000000000000    
_SL_BMxOld=  0.000000000000000    
_SL_KtB=  0.000000000000000    
_SL_TROld=  0.000000000000000    
_SL_No_of_Intern=  0.000000000000000    
_SL_Hess=  0.000000000000000    
_SL_K=  0.000000000000000    
!LATTICE= -1.000000000000000    
!NEWLATTICE=  0.000000000000000    
!LATGRAD_VAR=FALSE
!SEW_LATTICE=  1.000000000000000    
!AIC_ONEEL=  0.000000000000000    
!LOCAL=  0.000000000000000    
!SAVEDOM= -1.000000000000000    
!RESTDOM= -1.000000000000000    
!SAVEDOM_HF= -1.000000000000000    
!RESTDOM_HF= -1.000000000000000    
!HESSREC=  0.000000000000000    
!FREQREC=  0.000000000000000    
!NMODREC=  0.000000000000000    
!GTASKS=  0.000000000000000    
!HTASKS=  0.000000000000000    
!SAVEDOM_EOM= -1.000000000000000    
!RESTDOM_EOM= -1.000000000000000    
!GRADSTATE= -1.000000000000000    
!DEBUG=  0.000000000000000    
!CFIT_CPHF=  0.000000000000000    
!RDOMAUX_CPHF=  0.000000000000000    
!THRAO_CPHF= 0.1000000000000000E-11
!THRMO_CPHF= 0.1000000000000000E-11
!THROV_CPHF= 0.1000000000000000E-11
!THRSW_CPHF= 0.1000000000000000E-11
!THRPROD_CPHF= 0.1000000000000000E-11
!THRAOPR_CPHF= 0.1000000000000000E-11
!CFIT_SCFGRD=  0.000000000000000    
!RDOMAUX_SCFGRD=  0.000000000000000    
!THRAO_SCFGRD= 0.1000000000000000E-11
!THRMO_SCFGRD= 0.1000000000000000E-11
!THROV_SCFGRD= 0.1000000000000000E-11
!THRSW_SCFGRD= 0.1000000000000000E-11
!THRPROD_SCFGRD= 0.1000000000000000E-11
!THRAOPR_SCFGRD= 0.1000000000000000E-11
!LOCFIT_SCF=  0.000000000000000    
!LOCFIT_MP2=  0.000000000000000    
_RIDOM=  0.000000000000000    
!CC2_METHOD=  0.000000000000000    
_BASIS2006=FALSE
_SVDDEL= -1.000000000000000    
_SVDDELA= -1.000000000000000    
_SVDDELP= -1.000000000000000    
_SVDDELF= -1.000000000000000    
_SVDDELS= -1.000000000000000    
_SVDDEL_ABS= -1.000000000000000    
_SVDDELA_ABS= -1.000000000000000    
_SVDDELP_ABS= -1.000000000000000    
_SVDDELF_ABS= -1.000000000000000    
_SVDDELS_ABS= -1.000000000000000    
_MAXBASIS=  0.000000000000000    
!OPT_CONICAL=  0.000000000000000    
!CLEARSP_JGRID=  0.000000000000000    
_GRDHYBR=  0.000000000000000    
_STATEGRAD=  1.000000000000000    
_4EXT_NDISKS=  1.000000000000000    
!EMBEDFLAG=  1.000000000000000    
!EMBED=FALSE
!EMBED_F12=FALSE
!EMBEDNUC=  0.000000000000000    
_EMBEDENERGY=  0.000000000000000    
!EMBED_DFC=FALSE
!NUM_VOIDS=  0.000000000000000    
_IBODY=  0.000000000000000    
_EMBE_CORR=  0.000000000000000    
!EMBED_PROJ=FALSE
!EMB_PROJ_ZMU=  1000000.000000000    
!CORRECTION_HF=  0.000000000000000    
!EMBED_AORB=  0.000000000000000    
!EMBED_NACORR=  0.000000000000000    
!EMBED_MP2=FALSE
!EMBED_TRUNC_PERTURBATION=FALSE
!EMBED_FROZEN=  0.000000000000000    
!EMBED_ACTIVE=  0.000000000000000    
_CHANGE_BASIS=FALSE
_RESTORE_BASIS=FALSE
_FIX_EMBED_GUESS=FALSE
_EMBED_SCF=FALSE
_HUZINAGA_T=FALSE
_HUZINAGA_F=FALSE
_HUZINAGA=FALSE
_HUZINAGA_CORRECT=FALSE
!FASTLATGRAD=  1.000000000000000    
!FASTVLAMBDA= -1.000000000000000    
!IFORCE= -1.000000000000000    
!USESYM= -1.000000000000000    
_SINDEX=  0.000000000000000    
_AVDOM_OSV=  0.000000000000000    
_AVDOM_PNO=  0.000000000000000    
_AVDOM_PAO=  0.000000000000000    
_AVDOM_LMO=  0.000000000000000    
_CC2OSV_FLAG=  0.000000000000000    
_EOMCCSD_CONV=FALSE
_TMADC2_FLAG=FALSE
_PROPADC2_FLAG=FALSE
_LEN_VirQ=  0.000000000000000    
_GRDCC2LR_FLAG=FALSE
_GRDADC2_FLAG=FALSE
_DMX_CC=-0.2582788656931623E-02
_DMY_CC=-0.1433030954800962E-02
_DMZ_CC=  2.727795703517268    
_DMX_NUC=-0.1107617345999967E-02
_DMY_NUC=-0.1083647084999694E-02
_DMZ_NUC=  1.688698542637000    
_RO_VGLOBAL=  0.000000000000000    
_OPT=FALSE
_FREQ=FALSE
_HESS=FALSE
_CMRCC_callName=EMPTY
_CMRCC_callCount=  0.000000000000000    
_GECCO_CIROOT=  1.000000000000000    
_SYM_CATION=  0.000000000000000    
_MON_A=FALSE
_MON_B=FALSE
R1=  1.078300000000000    
R2=  1.078400000000000    
R3=  1.078400000000000    
A2=  119.6513000000000    
A3=  119.6460000000000    
D3=  191.9816000000000    
DH1=  95.87510000000000    
ANG1=  93.37700000000000    
BB=  2.600000000000000    
GX1= 0.1872118788376223E-03
GY1= 0.1831603731107349E-03
GZ1=-0.2854274786475785    
GX2= 0.1942009442498295    
GY2=  2.025138697979995    
GZ2=-0.4041756401392552    
GX3=  1.657019485358728    
GY3= -1.180173275125302    
GZ3=-0.4063533144931282    
GX4= -1.849745029177375    
GY4=-0.8445901202508349    
GZ4=-0.4160657689249742    
GX5=-0.3706289052249921E-02
GY5=-0.2557911927263345E-02
GZ5=  4.627858138082098    
CBSEN= -40.20635160714767    
[Atoms] Angs
C     1    6         0.0000990683        0.0000969243       -0.1510417171
H     2    1         0.1027667140        1.0716572479       -0.2138805380
H     3    1         0.8768569497       -0.6245208021       -0.2150329136
H     4    1        -0.9788429154       -0.4469378442       -0.2201725232
H     5    1        -0.0019612837       -0.0013535887        2.4489570620
[GTO]
   1 0
 s    9  1.00
  0.6665000000D+04  0.6920001793D-03
  0.1000000000D+04  0.5329001381D-02
  0.2280000000D+03  0.2707700701D-01
  0.6471000000D+02  0.1017180264D+00
  0.2106000000D+02  0.2747400712D+00
  0.7495000000D+01  0.4485641162D+00
  0.2797000000D+01  0.2850740738D+00
  0.5215000000D+00  0.1520400394D-01
  0.1596000000D+00 -0.3191000827D-02
 s    9  1.00
  0.6665000000D+04 -0.1460000642D-03
  0.1000000000D+04 -0.1154000508D-02
  0.2280000000D+03 -0.5725002519D-02
  0.6471000000D+02 -0.2331201026D-01
  0.2106000000D+02 -0.6395502813D-01
  0.7495000000D+01 -0.1499810660D+00
  0.2797000000D+01 -0.1272620560D+00
  0.5215000000D+00  0.5445292395D+00
  0.1596000000D+00  0.5804962554D+00
 s    9  1.00
  0.6665000000D+04  0.0000000000D+00
  0.1000000000D+04  0.0000000000D+00
  0.2280000000D+03  0.0000000000D+00
  0.6471000000D+02  0.0000000000D+00
  0.2106000000D+02  0.0000000000D+00
  0.7495000000D+01  0.0000000000D+00
  0.2797000000D+01  0.0000000000D+00
  0.5215000000D+00  0.0000000000D+00
  0.1596000000D+00  0.1000000000D+01
 p    4  1.00
  0.9439000000D+01  0.3810902127D-01
  0.2002000000D+01  0.2094801169D+00
  0.5456000000D+00  0.5085572839D+00
  0.1517000000D+00  0.4688422617D+00
 p    4  1.00
  0.9439000000D+01  0.0000000000D+00
  0.2002000000D+01  0.0000000000D+00
  0.5456000000D+00  0.0000000000D+00
  0.1517000000D+00  0.1000000000D+01
 d    1  1.00
  0.5500000000D+00  0.1000000000D+01
  
   2 0
 s    4  1.00
  0.1301000000D+02  0.1968498999D-01
  0.1962000000D+01  0.1379769298D+00
  0.4446000000D+00  0.4781477569D+00
  0.1220000000D+00  0.5012397451D+00
 s    4  1.00
  0.1301000000D+02  0.0000000000D+00
  0.1962000000D+01  0.0000000000D+00
  0.4446000000D+00  0.0000000000D+00
  0.1220000000D+00  0.1000000000D+01
 p    1  1.00
  0.7270000000D+00  0.1000000000D+01
  
   3 0
 s    4  1.00
  0.1301000000D+02  0.1968498999D-01
  0.1962000000D+01  0.1379769298D+00
  0.4446000000D+00  0.4781477569D+00
  0.1220000000D+00  0.5012397451D+00
 s    4  1.00
  0.1301000000D+02  0.0000000000D+00
  0.1962000000D+01  0.0000000000D+00
  0.4446000000D+00  0.0000000000D+00
  0.1220000000D+00  0.1000000000D+01
 p    1  1.00
  0.7270000000D+00  0.1000000000D+01
  
   4 0
 s    4  1.00
  0.1301000000D+02  0.1968498999D-01
  0.1962000000D+01  0.1379769298D+00
  0.4446000000D+00  0.4781477569D+00
  0.1220000000D+00  0.5012397451D+00
 s    4  1.00
  0.1301000000D+02  0.0000000000D+00
  0.1962000000D+01  0.0000000000D+00
  0.4446000000D+00  0.0000000000D+00
  0.1220000000D+00  0.1000000000D+01
 p    1  1.00
  0.7270000000D+00  0.1000000000D+01
  
   5 0
 s    4  1.00
  0.1301000000D+02  0.1968498999D-01
  0.1962000000D+01  0.1379769298D+00
  0.4446000000D+00  0.4781477569D+00
  0.1220000000D+00  0.5012397451D+00
 s    4  1.00
  0.1301000000D+02  0.0000000000D+00
  0.1962000000D+01  0.0000000000D+00
  0.4446000000D+00  0.0000000000D+00
  0.1220000000D+00  0.1000000000D+01
 p    1  1.00
  0.7270000000D+00  0.1000000000D+01


[MO]
 Sym=      1.1
 Ene=     -11.2468
 Spin= Alpha
 Occup=    2.000000
1 1.00135860578037
2 0.007795335676189
3 -0.007954426279221
4 0.000000204862349
5 0.000000238056880
6 -0.000158142608640
7 -0.000000031835846
8 0.000000174340672
9 -0.000020688734574
10 0.000372034557184
11 0.000373280469961
12 -0.000745315027145
13 0.000000159449869
14 0.000003715480068
15 0.000002551243927
16 -0.000599829796224
17 0.001527175671716
18 0.000047767798352
19 0.000497293582550
20 -0.000050145239428
21 -0.000598674070008
22 0.001526449427102
23 0.000406953905850
24 -0.000289427069450
25 -0.000050614893769
26 -0.000599346766442
27 0.001527000323332
28 -0.000454227890485
29 -0.000207114075857
30 -0.000052964204419
31 -0.000142397355968
32 0.000337381339215
33 0.000000007325920
34 0.000000005424732
35 -0.000150483002269
 Sym=      2.1
 Ene=      -0.9087
 Spin= Alpha
 Occup=    2.000000
1 -0.027109871811722
2 0.75979851590247
3 -0.14872385139257
4 0.000080287775367
5 0.000055829445995
6 -0.032284505097871
7 -0.000010705451732
8 -0.000003385946604
9 0.006624807748287
10 0.001849266094691
11 0.001853517481204
12 -0.003702783575895
13 -0.000000311945436
14 0.000018304244832
15 0.000012390359687
16 0.35038654927670
17 -0.14683734018425
18 -0.002718734841590
19 -0.028392811473299
20 0.000671850347313
21 0.35033137898237
22 -0.14680118725623
23 -0.023226240007056
24 0.016548107629114
25 0.000702294034472
26 0.35035569837582
27 -0.14680580027100
28 0.025939740257734
29 0.011844821283763
30 0.000840009109538
31 0.009724255166743
32 -0.000471983152167
33 0.000000648997373
34 0.000000468070892
35 -0.000839144862535
 Sym=      3.1
 Ene=      -0.5786
 Spin= Alpha
 Occup=    2.000000
1 -0.000002898646529
2 0.000038339027997
3 -0.000005663319234
4 0.044563014404489
5 0.64473586371962
6 0.001408865922814
7 -0.008505927312954
8 -0.12302891102214
9 -0.000274022919378
10 -0.020296571518905
11 0.020310655389645
12 -0.000014083870740
13 0.005182135361913
14 -0.000379504295210
15 -0.004583152811367
16 0.63654380481519
17 -0.18470078810046
18 -0.002487322348255
19 -0.022419456975027
20 0.001532985888330
21 -0.33284329439189
22 0.096573713972772
23 0.015917289546379
24 0.002015509262489
25 -0.000779102199829
26 -0.30376697800866
27 0.088132272567040
28 -0.014443724060132
29 0.005731665697479
30 -0.000789208323530
31 0.000038614400326
32 -0.000010282243055
33 0.000039860012501
34 0.000588241220174
35 -0.000002192112849
 Sym=      4.1
 Ene=      -0.5785
 Spin= Alpha
 Occup=    2.000000
1 -0.000001299424685
2 0.000015401507036
3 0.000010220598313
4 0.64471808488708
5 -0.044569109260157
6 0.001781365759007
7 -0.12295913059934
8 0.008497730289778
9 -0.000346883598982
10 -0.004460551427098
11 0.004481066125819
12 -0.000020514698721
13 -0.023443101345699
14 -0.004707511533421
15 0.000262681848978
16 0.016793338287273
17 -0.004870719989279
18 0.012640420346504
19 -0.001806546963854
20 0.000074536951447
21 0.54286411477653
22 -0.15747212436190
23 -0.011791721083397
24 0.016589341012158
25 0.001350400056323
26 -0.55966479427750
27 0.16233818605401
28 -0.015497773717329
29 -0.013769743373766
30 -0.001469895206280
31 0.000049320944200
32 -0.000013984963147
33 0.000586938446337
34 -0.000041373306897
35 -0.000002670448996
 Sym=      5.1
 Ene=      -0.2381
 Spin= Alpha
 Occup=    1.488921
1 -0.000591753826993
2 0.009797978612751
3 0.017007999676960
4 -0.001765034436721
5 -0.001208750303196
6 0.56223721727494
7 -0.000181598891820
8 -0.000122211205647
9 0.067680954736890
10 -0.003845890492037
11 -0.003854405969861
12 0.007700296461898
13 0.000003176938833
14 -0.000025703950471
15 -0.000018626190170
16 -0.035904282788547
17 0.011200977077075
18 0.000096513933569
19 0.001396056510751
20 0.012977683666387
21 -0.035858565656202
22 0.011196220253381
23 0.001122935531988
24 -0.000855390261309
25 0.012972368870171
26 -0.035691780429083
27 0.011182347917837
28 -0.001329937661341
29 -0.000616150061346
30 0.012961591486627
31 0.64052017891265
32 0.044250898795792
33 0.000000631150259
34 0.000000441251763
35 0.000335418479961
 Sym=      6.1
 Ene=      -0.0314
 Spin= Alpha
 Occup=    0.511079
1 0.003378705861120
2 -0.068745135249270
3 -0.040899412977765
4 0.001954196857730
5 0.001339730439219
6 -0.69493005916986
7 0.000237570788389
8 0.000161189048646
9 -0.081933826457925
10 0.002542436171744
11 0.002539360213986
12 -0.005081796385731
13 0.000001685028421
14 0.000024266563140
15 0.000017737067043
16 0.009601417942543
17 -0.002609098316307
18 0.000083521907508
19 0.000484807938191
20 -0.014223091793262
21 0.009642457537260
22 -0.002611400597595
23 0.000411943942615
24 -0.000238343798568
25 -0.014218457138365
26 0.009853680740799
27 -0.002623386017084
28 -0.000365109352180
29 -0.000157934906609
30 -0.014213987314052
31 0.81231789140265
32 -0.064732394013224
33 0.000002430952660
34 0.000001654422997
35 0.001208234349377
 Sym=      7.1
 Ene=       0.2018
 Spin= Alpha
 Occup=    0.000000
1 0.081930092817998
2 -0.20842567728319
3 -2.09978981961903
4 -0.000054825006238
5 0.000016761451545
6 0.058889961444365
7 0.000010170178866
8 0.000169161781930
9 0.052507577383039
10 -0.012852032292449
11 -0.012868562121157
12 0.025720594413606
13 -0.000003913382248
14 -0.000139079497878
15 -0.000096664239003
16 0.060749934213086
17 1.01936819349692
18 -0.001693870437896
19 -0.017612337463911
20 0.003121868390900
21 0.060687120951397
22 1.01961125479832
23 -0.014414123186713
24 0.010251597818268
25 0.003139731984406
26 0.060564638998391
27 1.02025478994054
28 0.016084031050272
29 0.007336329136177
30 0.003227218429479
31 -0.097168856893501
32 0.013009541029607
33 0.000021901210705
34 0.000014465913144
35 -0.002232659603863
 Sym=      8.1
 Ene=       0.2679
 Spin= Alpha
 Occup=    0.000000
1 0.000027881801562
2 -0.000049377219115
3 -0.000725605404867
4 -0.28170542060411
5 -0.34705997589566
6 -0.001434085705902
7 -0.78113975216505
8 -0.96276058665292
9 -0.004335410707398
10 0.018811709021511
11 -0.018841118303599
12 0.000029409282088
13 0.009056552901787
14 0.004127688666631
15 0.004970782071001
16 0.021165475100146
17 1.82045593711648
18 -0.004238632246319
19 -0.022361066134729
20 0.000444151691744
21 0.001766059536487
22 0.13711084413903
23 -0.003564667068693
24 -0.002059026862346
25 0.000030251119567
26 -0.022702301229828
27 -1.95680325386045
28 -0.021468049441280
29 -0.011635568376395
30 -0.000612160742771
31 -0.000281342118601
32 0.000011479870281
33 0.002191968009109
34 0.002752453532070
35 -0.000002105266526
 Sym=      9.1
 Ene=       0.2679
 Spin= Alpha
 Occup=    0.000000
1 -0.000007925331048
2 -0.000025931608751
3 0.000011927482418
4 0.34710617913453
5 -0.28167812242677
6 0.000430699779239
7 0.96244136007738
8 -0.78134936228903
9 0.001294031943728
10 0.007887260243995
11 -0.007874950997079
12 -0.000012309246917
13 -0.021737028190484
14 -0.005001495345648
15 0.003965837854137
16 0.013994490348731
17 1.20922110926243
18 0.001695074172649
19 -0.015285072510070
20 0.000300721406674
21 -0.025395833074095
22 -2.18061318308709
23 0.021975289541146
24 -0.015945030819677
25 -0.000562486892142
26 0.011397799766160
27 0.97133454159591
28 0.012397806082056
29 0.001965931934584
30 0.000303412494191
31 0.000087002473894
32 -0.000014696674094
33 -0.002735138593369
34 0.002261760503862
35 0.000000950596641
 Sym=     10.1
 Ene=       0.6088
 Spin= Alpha
 Occup=    0.000000
1 0.000045967242070
2 0.000086751909979
3 -0.000443608031644
4 -0.45055555309260
5 0.013214205368780
6 -0.000665785538067
7 1.67611057146061
8 -0.049152155669265
9 0.004325562840702
10 0.026832106513794
11 -0.026807605519481
12 -0.000024500994313
13 0.11803364555292
14 0.011377110902620
15 -0.000037507844713
16 -0.086871165658244
17 0.027893612194115
18 0.068412148604940
19 -0.006866016847754
20 0.000484365635616
21 -1.09749748667080
22 0.35228704654750
23 0.018593936655831
24 0.033762171532807
25 0.003572275865288
26 1.18531509153442
27 -0.38038643712461
28 0.008215816879150
29 -0.029689762371675
30 -0.003706979546227
31 0.000756816349126
32 -0.001355112167135
33 0.028895218784236
34 -0.000831677892669
35 -0.000138884398721
 Sym=     11.1
 Ene=       0.6089
 Spin= Alpha
 Occup=    0.000000
1 -0.000067490021068
2 -0.000181738674766
3 0.000371933001045
4 -0.013222369424338
5 -0.45064595537338
6 -0.000352627556161
7 0.049222839985569
8 1.67743419714009
9 0.002829167327625
10 0.10221177609607
11 -0.10231602980919
12 0.000104253713120
13 -0.031043722693889
14 0.000610178575860
15 0.010722167773877
16 -1.31839104617464
17 0.42189533785502
18 -0.005061411524532
19 -0.004949465739453
20 0.004122729596472
21 0.73408866211854
22 -0.23457259152431
23 0.035682041828349
24 0.044983817801060
25 -0.002072792079396
26 0.58305334587329
27 -0.18623101256123
28 -0.027823589921294
29 0.055329636852140
30 -0.001766571988817
31 -0.000245009477373
32 -0.000108833123537
33 0.000862841486063
34 0.028868577129421
35 -0.000118702320946
 Sym=     12.1
 Ene=       0.6575
 Spin= Alpha
 Occup=    0.000000
1 -0.048186048816170
2 -0.020551261747808
3 0.36450293329593
4 -0.000155655114527
5 0.000166512086288
6 0.093523717288986
7 0.001140062122569
8 -0.000426610527961
9 -0.40120400124009
10 -0.075674542761010
11 -0.075899613764658
12 0.15157415652567
13 0.000161929592089
14 -0.000689054410604
15 -0.000484877497269
16 -0.58060054733156
17 0.31937623062231
18 -0.006024765789106
19 -0.063453191120339
20 0.013902434791025
21 -0.58186906324397
22 0.31968038981805
23 -0.051861369061628
24 0.036960705590527
25 0.013930248614596
26 -0.58088195564751
27 0.31941374544244
28 0.057775018421884
29 0.026335417185705
30 0.014031565566597
31 -1.74613698614922
32 1.98838620521800
33 0.000005266851647
34 -0.000018990357908
35 -0.000420522564077
 Sym=     13.1
 Ene=       0.7312
 Spin= Alpha
 Occup=    0.000000
1 0.062098538450279
2 0.073730342761116
3 -0.41572266012095
4 0.003549062538959
5 0.002321219567944
6 -1.18048285867149
7 -0.003934255545458
8 -0.002193209576120
9 1.36977861337067
10 0.057774003907290
11 0.057553361796706
12 -0.11532736570400
13 0.000103418579055
14 0.000632873654524
15 0.000439508446008
16 0.55618505372507
17 -0.38456897883181
18 0.004216503671068
19 0.042404028532379
20 -0.035835696552404
21 0.55687600760507
22 -0.38470613105206
23 0.034796914425477
24 -0.024531271510245
25 -0.035885709858024
26 0.55765276839738
27 -0.38527601983915
28 -0.038676440589910
29 -0.017598245551927
30 -0.036181416678576
31 -0.90361227936683
32 0.88166915797691
33 -0.000018398317988
34 -0.000001657819238
35 -0.029480847243903
 Sym=     14.1
 Ene=       0.7874
 Spin= Alpha
 Occup=    0.000000
1 0.071253219722267
2 0.053746764773990
3 -0.21750983141277
4 -0.001956150326412
5 -0.001422367225686
6 0.88826695813952
7 0.002155220631001
8 0.001958568001395
9 -1.18535086809458
10 0.10083045610980
11 0.10076622726169
12 -0.20159668337149
13 0.000064486142570
14 0.001157536168238
15 0.000801272021564
16 0.80916066019662
17 -0.71830526978747
18 0.009145085305442
19 0.096572716311676
20 0.036140384176469
21 0.80961307921918
22 -0.71830870719852
23 0.078986855107461
24 -0.056390467132550
25 0.035969985205618
26 0.80921642358202
27 -0.71844736079516
28 -0.088617000773200
29 -0.040455658774519
30 0.035276512568004
31 -0.86326369081064
32 1.24920262722699
33 -0.000098746103398
34 -0.000058351306955
35 0.14568119319476
 Sym=     15.1
 Ene=       0.8960
 Spin= Alpha
 Occup=    0.000000
1 0.000003581973293
2 -0.000097643266641
3 0.000121455636884
4 -1.24077898649114
5 0.043361578812301
6 -0.003389059830670
7 2.30650044689498
8 -0.080610691202256
9 0.006282091626879
10 -0.073341776717870
11 0.073595423514996
12 -0.000253646797126
13 -0.33087569023447
14 -0.037417230347211
15 0.000470530892209
16 0.036526656150140
17 -0.12254713727327
18 -0.069694519485519
19 0.024167017886353
20 -0.001392960769704
21 0.50032400677189
22 -1.68758678083234
23 0.17245851316847
24 -0.17152372496547
25 -0.017008588192150
26 -0.53595389933755
27 1.80915503599888
28 0.22062771390697
29 0.13605436524124
30 0.019361325488891
31 -0.001157662654329
32 0.001337689593476
33 0.011498903946298
34 -0.000313318128625
35 -0.000045934528649
 Sym=     16.1
 Ene=       0.8960
 Spin= Alpha
 Occup=    0.000000
1 0.000074601558890
2 0.000223718790838
3 -0.000306763628761
4 -0.043330244550170
5 -1.24071104234073
6 -0.002491742084142
7 0.080552923504838
8 2.30669321618195
9 0.004634929206421
10 -0.28653190992511
11 0.28671456910066
12 -0.000182659175548
13 0.085035011960019
14 -0.002080207363662
15 -0.035598556677914
16 0.59857894181099
17 -2.01919742529121
18 0.031711175573541
19 0.28544740292630
20 -0.019875273336572
21 -0.33041379190189
22 1.11526211105563
23 -0.16397602981020
24 0.043198736317707
25 0.010963594274922
26 -0.26767830977551
27 0.90355042816457
28 0.14356218328792
29 -0.005138100344174
30 0.009620154832521
31 -0.000813494565952
32 0.000947840844412
33 0.000483015169802
34 0.011296067527756
35 -0.000025025916568
 Sym=     17.1
 Ene=       1.0563
 Spin= Alpha
 Occup=    0.000000
1 -0.77827623856168
2 -3.54716057082641
3 5.99956213946239
4 0.000057423693712
5 0.000061165242502
6 0.020654102973268
7 0.000032313408705
8 -0.000106936046627
9 -0.10427199919586
10 0.022417429472767
11 0.022707449943119
12 -0.045124879415885
13 0.000030302291989
14 0.000266320256386
15 0.000168166004740
16 -0.13650277813682
17 -0.87081111387464
18 0.017757058765500
19 0.18500532843696
20 -0.024438391365154
21 -0.13658176275564
22 -0.87059413164761
23 0.15131377972324
24 -0.10774225190392
25 -0.024611120976651
26 -0.13648735208521
27 -0.87099224499782
28 -0.16889357467458
29 -0.077109347593080
30 -0.025478623769609
31 0.008129971035809
32 -0.081439520592403
33 -0.000081006995816
34 -0.000057503564447
35 -0.16855073265319
 Sym=     18.1
 Ene=       1.2096
 Spin= Alpha
 Occup=    0.000000
1 0.000061986533465
2 0.000305590882810
3 -0.000547795103287
4 0.000867534394259
5 0.016794457553718
6 -0.000015702640985
7 0.001652709833310
8 0.032853438474010
9 0.000257162865802
10 -0.057270051912505
11 0.054875519484272
12 0.002394532428233
13 0.013887724230058
14 0.031578122398115
15 0.62152860144854
16 -0.041093908658073
17 0.011659627296822
18 0.002841807791844
19 0.013966407893342
20 0.40647132967617
21 0.022028036549327
22 -0.005969391033356
23 -0.034908778730706
24 -0.035353768536700
25 -0.21909803006321
26 0.018885694428976
27 -0.005135114678862
28 0.028706169752802
29 -0.044375114677356
30 -0.18769634532783
31 0.000687197778028
32 -0.000939927024017
33 0.001348103251546
34 0.026725775537733
35 -0.000435063368410
 Sym=     19.1
 Ene=       1.2096
 Spin= Alpha
 Occup=    0.000000
1 0.000093152440718
2 0.000450652943060
3 -0.000788323944582
4 0.016799725543474
5 -0.000849091330460
6 0.000004454474403
7 0.032764148547851
8 -0.001699929282865
9 0.000277424750620
10 -0.016862581221755
11 0.013761693125136
12 0.003100888096618
13 -0.067041712456828
14 0.62123276958326
15 -0.031922192335879
16 -0.001898359448663
17 0.000785321481969
18 -0.058695124200312
19 0.006217365460054
20 0.017854200535318
21 -0.034664946571599
22 0.009947928220711
23 -0.009058241089151
24 -0.033937253061068
25 0.34291041757462
26 0.036342995314183
27 -0.009991560162362
28 0.002020106507804
29 0.031077656697934
30 -0.36101515446959
31 0.000907287343958
32 -0.001228091165953
33 0.026691572207162
34 -0.001381325262958
35 -0.000543635118204
 Sym=     20.1
 Ene=       1.5233
 Spin= Alpha
 Occup=    0.000000
1 -0.000150586551106
2 -0.000664008340361
3 0.001249618918367
4 0.051065781380249
5 0.046557025599188
6 0.000360610732649
7 0.064139855244329