[Molden Format]
[Molpro variables]
_NUMVAR=  1056.000000000000    
_AVOGAD= 0.6022140760000000E+24
_BOLTZ= 0.1380649000000000E-22
_CLIGHTSI=  299792458.0000000    
_JOULE= 0.4359744722207100E-17
_JPCAL=  4.184000000000000    
_PLANCK= 0.6626070150000000E-33
_BOHR= 0.5291772109030000E-10
_ECHARG= 0.1602176634000000E-18
_ENULL= 0.8854187812800001E-11
_MU= 0.1660539066600000E-26
_EMASS= 0.9109383701500001E-30
_AMU2AU=  1822.888486217313    
_CLIGHT=  29979245800.00000    
_EV= 0.3674932217565494E-01
_KJOULE= 0.3808798847133432E-03
_KJOULE/MOL= 0.3808798847133432E-03
_CM= 0.4556335252912009E-05
_CM-1= 0.4556335252912009E-05
_DEB2SI= 0.3335640951981520E-29
_KCAL= 0.1593601437640628E-02
_KCAL/MOL= 0.1593601437640628E-02
_KELVIN= 0.3166811563455608E-05
_HERTZ= 0.1519829846057038E-15
_HZ= 0.1519829846057038E-15
_TOA= 0.5291772109030000    
_TOANG= 0.5291772109030000    
_TORAD= 0.1745329251994330E-01
_TOCM=  219474.6313631965    
_TODEBYE=  2.541746473194078    
_TOE= 0.4803204712570263E-09
_TOEV=  27.21138624598803    
_TOHERTZ=  6579683920501656.    
_TOHZ=  6579683920501656.    
_TOK=  315775.0248040668    
_TOKCAL=  627.5094740630558    
_TOKELVIN=  315775.0248040668    
_TOKJ=  2625.499639479825    
_TOKJOULE=  2625.499639479825    
_TOKG= 0.1660539066600000E-26
_ANG=  1.889726124625770    
_ANGSTROM=  1.889726124625770    
_RPAREF=  0.000000000000000    
_RPADISS=  0.000000000000000    
_IGNORE_UNDEF=  2.000000000000000    
_STRICTCHECK=  0.000000000000000    
!SEWARD=  0.000000000000000    
!MULTI=  0.000000000000000    
!DFMULTI=  0.000000000000000    
_SEW_ONEEL=  0.000000000000000    
_CPPDONE=FALSE
_DKROLL_DONE=  0.000000000000000    
_FNUC_DONE=  0.000000000000000    
_FOCKDONE=  0.000000000000000    
_GRADONE=FALSE
_HESSDONE=FALSE
_INTDONE=TRUE
_SCFDONE=FALSE
_MODUL_BLOCK=FALSE
_MODUL_CUDA=FALSE
_MODUL_SLATER=FALSE
_MODUL_MRCC=TRUE
_MODUL_NBO6=FALSE
_MODUL_NECI=FALSE
_MODUL_AIMS=TRUE
_MODUL_GECCO=FALSE
_ISWINDOWS=FALSE
_MRCC_EXEC=/software/cinetica/mrcc/bin/dmrcc
_FITC_AO_SAVED=FALSE
_FITC_MO_SAVED=FALSE
_SHARED_FS=TRUE
_LSTYP=SEWARD
_INTYP=INTS
_GEOMTYP=ZMAT
_GRADTYP=ALASKA
_DIRECT=FALSE
_DKHO= -1.000000000000000    
_FNUC=  0.000000000000000    
_SYNCM=  0.000000000000000    
_BASIS=CC-PVDZ
_ZORIENT=  1.000000000000000    
!ZORIENT=  0.000000000000000    
_NELEC=  18.00000000000000    
!SPIN=  0.000000000000000    
_QSDSTEP=  0.000000000000000    
_QSDIRC=  0.000000000000000    
_PROGRAM=RS2
_CPUSTEP= 0.1400000000000001    
_SYSSTEP= 0.8999999999999997E-01
_WALLSTEP= 0.5400000000000000    
!DFMP2=  0.000000000000000    
!DFHFENERG=  0.000000000000000    
!SCSGRD=  0.000000000000000    
_CPUTOT=  1.260000000000000    
_DMX= 0.7083686178488186E-04
_DMY=-0.1366211123020621E-03
_DMZ=-0.7334807262967310E-05
_EMP2= -79.45853825107804    
_ENERGR= -79.18201691886173    
_ENERGU= -79.44157951459026    
_ENERGY= -79.45853825107804    
_ENERGY_METHOD=RS2
_ENERGY_BASIS=cc-pVDZ
_GEOMETRY_METHOD=
_GEOMETRY_BASIS=
_ENERGY_AVRG= -79.18201691886172    
_ENUC=  36.69575175295221    
_GRADMETHOD=  9.000000000000000    
_NMRMETHOD=  0.000000000000000    
_NMRMAGNET=  0.000000000000000    
!GRID_FREEZE= -1.000000000000000    
!NEESE_INDEX=  0.000000000000000    
_ITERATIONS=  5.000000000000000    
_LASTNELEC=  2.000000000000000    
_LASTSPIN=  0.000000000000000    
_LASTSYM=  1.000000000000000    
_MPP_PROG=  1.000000000000000    
_MSNSTATES=  0.000000000000000    
_RS2PHASE=  0.000000000000000    
_IPROC_MPP=  0.000000000000000    
_IPROC_MPPX=  0.000000000000000    
_NPROC_MPP=  4.000000000000000    
_NPROC_MPPX=  4.000000000000000    
_NPROC_SMP=  1.000000000000000    
_NUMSTEP=  0.000000000000000    
_ORBITAL=  2140.200000000000    
_PI=  3.141592653589793    
!MCACT=  2.000000000000000    
!MCCLOSED=  8.000000000000000    
!MCFREEZE=  0.000000000000000    
!MCMS2=  0.000000000000000    
!MCNEL=  2.000000000000000    
!MCNSTSYM=  1.000000000000000    
!MCSTATE=  1.000000000000000    
!MCSYM=  1.000000000000000    
!MCWEIGHT=  1.000000000000000    
_SEIG_MIN= 0.9878872001120323E-02
_SEWPROP=TRUE
_STATUS=  1.000000000000000    
_SYSTOT= 0.6000000000000000    
_VERSION=  2022002.000000000    
_WALLTOT=  3.110000000000000    
_DATE=27-May-23
_LASTORB=MCSCF
_OUTPUT=/home/chimica2/cavallotti/qm/barrierless/vrc_autom/folders/ch3+ch3/dist_2.2/molpro.out
_PGROUP=C1
_TIME=09:29:46
_LIBMOL=/software/cinetica/molpro_2022.2/lib/
_VIGRDC=  0.000000000000000    
!VIBCNT=  0.000000000000000    
!RGHFCNT=  0.000000000000000    
!SURFREC=  0.000000000000000    
!XSURFREC=  0.000000000000000    
!XPOLYREC=  0.000000000000000    
!ROTREC=  0.000000000000000    
!POLYREC=  0.000000000000000    
!DIPREC=  0.000000000000000    
!DIP4DREC=  0.000000000000000    
!DIPROT=  0.000000000000000    
!DIP4DROT=  0.000000000000000    
!PTREC=  0.000000000000000    
!PT4DREC=  0.000000000000000    
!VSCFREC=  0.000000000000000    
!VCIREC=  0.000000000000000    
!PVCIREC=  0.000000000000000    
!VMP2REC=  0.000000000000000    
!VMCSCFREC=  0.000000000000000    
!VMRCIREC=  0.000000000000000    
!VIBSTATEREC=  0.000000000000000    
!VIBSTATECNT=  0.000000000000000    
!VIBINFO=  0.000000000000000    
!GAREC=  0.000000000000000    
!MCORB=  21402.00000000000    
!DEFCORE=  2.000000000000000    
!SCORE=  0.000000000000000    
!NEWMOL= -1.000000000000000    
!NEWSYM= -1.000000000000000    
_SLFILES=slscratch
_NGSSTO=  9.000000000000000    
_SIN=SIN
_COS=COS
_TAN=TAN
_ACOS=ACOS
_ASIN=ASIN
_ATAN=ATAN
_COSH=COSH
_SINH=SINH
_TANH=TANH
_ABS=ABS
_MOD=MOD
_ERF=ERF
_REFC=REFC
_ERFC=ERFC
_HYPOT=HYPOT
_J0=J0
_J1=J1
_JN=JN
_GAMMA=GAMMA
_LGAMMA=LGAMMA
_Y0=Y0
_Y1=Y1
_YN=YN
_EXP=EXP
_LOG=LOG
_LOG10=LOG10
_SQRT=SQRT
_INT=INT
_NINT=NINT
_MAX=MAX
_MIN=MIN
_COSMO=  0.000000000000000    
_COSMOIT=  0.000000000000000    
_COSMOES=  0.000000000000000    
_COSMOEDS=  0.000000000000000    
_COSMOEC=  0.000000000000000    
_COSMOEDCORR=  0.000000000000000    
_FEPSI=  1.000000000000000    
_SL_IsMM=  0.000000000000000    
_SL_NSYM=  1.000000000000000    
_SL_System_BitSw=  0.000000000000000    
_SL_Unique_atoms=  0.000000000000000    
_SL_GRAD=  0.000000000000000    
_SL_MAXUPD_Hess=  5.000000000000000    
_SL_N_PRINT_COD=  5.000000000000000    
_SL_PRINT_CODES=  0.000000000000000    
_SL_BasType=  0.000000000000000    
_SL_Energy_Pred=  0.000000000000000    
_SL_New_Coords=  0.000000000000000    
_SL_Total_Nuclea=  0.000000000000000    
_SL_Highest_Mltp=  0.000000000000000    
_SL_Ref_Geom=  0.000000000000000    
_SL_Symmetry_ope=  1.000000000000000    
_SL_agrad=  0.000000000000000    
_SL_GrdMax=  0.000000000000000    
_SL_GrdNorm=  0.000000000000000    
_SL_GrdRMS=  0.000000000000000    
_SL_Hss_Q=  0.000000000000000    
_SL_Hss_X=  0.000000000000000    
_SL_BMxOld=  0.000000000000000    
_SL_KtB=  0.000000000000000    
_SL_TROld=  0.000000000000000    
_SL_No_of_Intern=  0.000000000000000    
_SL_Hess=  0.000000000000000    
_SL_K=  0.000000000000000    
!LATTICE= -1.000000000000000    
!NEWLATTICE=  0.000000000000000    
!LATGRAD_VAR=FALSE
!SEW_LATTICE=  1.000000000000000    
!AIC_ONEEL=  0.000000000000000    
!LOCAL=  0.000000000000000    
!SAVEDOM= -1.000000000000000    
!RESTDOM= -1.000000000000000    
!SAVEDOM_HF= -1.000000000000000    
!RESTDOM_HF= -1.000000000000000    
!HESSREC=  0.000000000000000    
!FREQREC=  0.000000000000000    
!NMODREC=  0.000000000000000    
!GTASKS=  0.000000000000000    
!HTASKS=  0.000000000000000    
!SAVEDOM_EOM= -1.000000000000000    
!RESTDOM_EOM= -1.000000000000000    
!GRADSTATE= -1.000000000000000    
!DEBUG=  0.000000000000000    
!CFIT_CPHF=  0.000000000000000    
!RDOMAUX_CPHF=  0.000000000000000    
!THRAO_CPHF= 0.1000000000000000E-11
!THRMO_CPHF= 0.1000000000000000E-11
!THROV_CPHF= 0.1000000000000000E-11
!THRSW_CPHF= 0.1000000000000000E-11
!THRPROD_CPHF= 0.1000000000000000E-11
!THRAOPR_CPHF= 0.1000000000000000E-11
!CFIT_SCFGRD=  0.000000000000000    
!RDOMAUX_SCFGRD=  0.000000000000000    
!THRAO_SCFGRD= 0.1000000000000000E-11
!THRMO_SCFGRD= 0.1000000000000000E-11
!THROV_SCFGRD= 0.1000000000000000E-11
!THRSW_SCFGRD= 0.1000000000000000E-11
!THRPROD_SCFGRD= 0.1000000000000000E-11
!THRAOPR_SCFGRD= 0.1000000000000000E-11
!LOCFIT_SCF=  0.000000000000000    
!LOCFIT_MP2=  0.000000000000000    
_RIDOM=  0.000000000000000    
!CC2_METHOD=  0.000000000000000    
_BASIS2006=FALSE
_SVDDEL= -1.000000000000000    
_SVDDELA= -1.000000000000000    
_SVDDELP= -1.000000000000000    
_SVDDELF= -1.000000000000000    
_SVDDELS= -1.000000000000000    
_SVDDEL_ABS= -1.000000000000000    
_SVDDELA_ABS= -1.000000000000000    
_SVDDELP_ABS= -1.000000000000000    
_SVDDELF_ABS= -1.000000000000000    
_SVDDELS_ABS= -1.000000000000000    
_MAXBASIS=  0.000000000000000    
!OPT_CONICAL=  0.000000000000000    
!CLEARSP_JGRID=  0.000000000000000    
_GRDHYBR=  0.000000000000000    
_STATEGRAD=  1.000000000000000    
_4EXT_NDISKS=  1.000000000000000    
!EMBEDFLAG=  1.000000000000000    
!EMBED=FALSE
!EMBED_F12=FALSE
!EMBEDNUC=  0.000000000000000    
_EMBEDENERGY=  0.000000000000000    
!EMBED_DFC=FALSE
!NUM_VOIDS=  0.000000000000000    
_IBODY=  0.000000000000000    
_EMBE_CORR=  0.000000000000000    
!EMBED_PROJ=FALSE
!EMB_PROJ_ZMU=  1000000.000000000    
!CORRECTION_HF=  0.000000000000000    
!EMBED_AORB=  0.000000000000000    
!EMBED_NACORR=  0.000000000000000    
!EMBED_MP2=FALSE
!EMBED_TRUNC_PERTURBATION=FALSE
!EMBED_FROZEN=  0.000000000000000    
!EMBED_ACTIVE=  0.000000000000000    
_CHANGE_BASIS=FALSE
_RESTORE_BASIS=FALSE
_FIX_EMBED_GUESS=FALSE
_EMBED_SCF=FALSE
_HUZINAGA_T=FALSE
_HUZINAGA_F=FALSE
_HUZINAGA=FALSE
_HUZINAGA_CORRECT=FALSE
!FASTLATGRAD=  1.000000000000000    
!FASTVLAMBDA= -1.000000000000000    
!IFORCE= -1.000000000000000    
!USESYM= -1.000000000000000    
_SINDEX=  0.000000000000000    
_AVDOM_OSV=  0.000000000000000    
_AVDOM_PNO=  0.000000000000000    
_AVDOM_PAO=  0.000000000000000    
_AVDOM_LMO=  0.000000000000000    
_CC2OSV_FLAG=  0.000000000000000    
_EOMCCSD_CONV=FALSE
_TMADC2_FLAG=FALSE
_PROPADC2_FLAG=FALSE
_LEN_VirQ=  0.000000000000000    
_GRDCC2LR_FLAG=FALSE
_GRDADC2_FLAG=FALSE
_DMX_CC=-0.4839683711992393E-03
_DMY_CC= 0.1672415513748859E-02
_DMZ_CC=-0.1448725754680247E-03
_DMX_NUC= 0.3137664060000045E-03
_DMY_NUC=-0.1800826728000082E-02
_DMZ_NUC= 0.9452497999662413E-04
_RO_VGLOBAL=  0.000000000000000    
_OPT=FALSE
_FREQ=FALSE
_HESS=FALSE
_CMRCC_callName=EMPTY
_CMRCC_callCount=  0.000000000000000    
_GECCO_CIROOT=  1.000000000000000    
_SYM_CATION=  0.000000000000000    
_MON_A=FALSE
_MON_B=FALSE
R1=  1.081600000000000    
R2=  1.081700000000000    
R3=  1.081700000000000    
A2=  114.5356000000000    
A3=  114.5412000000000    
D3=  224.9372000000000    
R21=  1.081600000000000    
R22=  1.081700000000000    
R23=  1.081700000000000    
A22=  114.5370000000000    
A23=  114.5429000000000    
D23=  135.0532000000000    
ANG2=  103.7889000000000    
DH3=  112.4568000000000    
DH2=  59.98320000000000    
DH1=  112.4591000000000    
ANG1=  103.7826000000000    
BB=  2.200000000000000    
GX1= 0.1073131894301915E-03
GY1= 0.1422039016352183E-03
GZ1= -2.078706721164376    
GX2=  1.017933451557785    
GY2=  1.704434932660878    
GZ2= -2.565591719775444    
GX3= 0.9661010181624301    
GY3= -1.734066162943661    
GZ3= -2.566344687169998    
GX4= -1.984634326864040    
GY4= 0.2774039077613094E-01
GZ4= -2.567022444741748    
GX5=-0.1603466661338759E-03
GY5= 0.1621757257845857E-03
GZ5=  2.078690744348164    
GX6=-0.9667227068561580    
GY6=  1.733984900798206    
GZ6=  2.565780794550682    
GX7=  1.984693676922149    
GY7=-0.3103739857870114E-01
GZ7=  2.566332390623800    
GX8= -1.016739145653591    
GY8= -1.704683767208098    
GZ8=  2.567036052388375    
CBSEN= -79.45853825107804    
[Atoms] Angs
C     1    6         0.0000567877        0.0000752511       -1.1000042250
H     2    1         0.5386671848        0.9019481238       -1.3576526706
H     3    1         0.5112386422       -0.9176282956       -1.3580511238
H     4    1        -1.0502232578        0.0146795826       -1.3584097776
C     5    6        -0.0000848518        0.0000858197        1.0999957704
H     6    1        -0.5115676257        0.9175852936        1.3577527246
H     7    1         1.0502546645       -0.0164242840        1.3580446167
H     8    1        -0.5380351853       -0.9020798014        1.3584169785
[GTO]
   1 0
 s    9  1.00
  0.6665000000D+04  0.6920001793D-03
  0.1000000000D+04  0.5329001381D-02
  0.2280000000D+03  0.2707700701D-01
  0.6471000000D+02  0.1017180264D+00
  0.2106000000D+02  0.2747400712D+00
  0.7495000000D+01  0.4485641162D+00
  0.2797000000D+01  0.2850740738D+00
  0.5215000000D+00  0.1520400394D-01
  0.1596000000D+00 -0.3191000827D-02
 s    9  1.00
  0.6665000000D+04 -0.1460000642D-03
  0.1000000000D+04 -0.1154000508D-02
  0.2280000000D+03 -0.5725002519D-02
  0.6471000000D+02 -0.2331201026D-01
  0.2106000000D+02 -0.6395502813D-01
  0.7495000000D+01 -0.1499810660D+00
  0.2797000000D+01 -0.1272620560D+00
  0.5215000000D+00  0.5445292395D+00
  0.1596000000D+00  0.5804962554D+00
 s    9  1.00
  0.6665000000D+04  0.0000000000D+00
  0.1000000000D+04  0.0000000000D+00
  0.2280000000D+03  0.0000000000D+00
  0.6471000000D+02  0.0000000000D+00
  0.2106000000D+02  0.0000000000D+00
  0.7495000000D+01  0.0000000000D+00
  0.2797000000D+01  0.0000000000D+00
  0.5215000000D+00  0.0000000000D+00
  0.1596000000D+00  0.1000000000D+01
 p    4  1.00
  0.9439000000D+01  0.3810902127D-01
  0.2002000000D+01  0.2094801169D+00
  0.5456000000D+00  0.5085572839D+00
  0.1517000000D+00  0.4688422617D+00
 p    4  1.00
  0.9439000000D+01  0.0000000000D+00
  0.2002000000D+01  0.0000000000D+00
  0.5456000000D+00  0.0000000000D+00
  0.1517000000D+00  0.1000000000D+01
 d    1  1.00
  0.5500000000D+00  0.1000000000D+01
  
   2 0
 s    4  1.00
  0.1301000000D+02  0.1968498999D-01
  0.1962000000D+01  0.1379769298D+00
  0.4446000000D+00  0.4781477569D+00
  0.1220000000D+00  0.5012397451D+00
 s    4  1.00
  0.1301000000D+02  0.0000000000D+00
  0.1962000000D+01  0.0000000000D+00
  0.4446000000D+00  0.0000000000D+00
  0.1220000000D+00  0.1000000000D+01
 p    1  1.00
  0.7270000000D+00  0.1000000000D+01
  
   3 0
 s    4  1.00
  0.1301000000D+02  0.1968498999D-01
  0.1962000000D+01  0.1379769298D+00
  0.4446000000D+00  0.4781477569D+00
  0.1220000000D+00  0.5012397451D+00
 s    4  1.00
  0.1301000000D+02  0.0000000000D+00
  0.1962000000D+01  0.0000000000D+00
  0.4446000000D+00  0.0000000000D+00
  0.1220000000D+00  0.1000000000D+01
 p    1  1.00
  0.7270000000D+00  0.1000000000D+01
  
   4 0
 s    4  1.00
  0.1301000000D+02  0.1968498999D-01
  0.1962000000D+01  0.1379769298D+00
  0.4446000000D+00  0.4781477569D+00
  0.1220000000D+00  0.5012397451D+00
 s    4  1.00
  0.1301000000D+02  0.0000000000D+00
  0.1962000000D+01  0.0000000000D+00
  0.4446000000D+00  0.0000000000D+00
  0.1220000000D+00  0.1000000000D+01
 p    1  1.00
  0.7270000000D+00  0.1000000000D+01
  
   5 0
 s    9  1.00
  0.6665000000D+04  0.6920001793D-03
  0.1000000000D+04  0.5329001381D-02
  0.2280000000D+03  0.2707700701D-01
  0.6471000000D+02  0.1017180264D+00
  0.2106000000D+02  0.2747400712D+00
  0.7495000000D+01  0.4485641162D+00
  0.2797000000D+01  0.2850740738D+00
  0.5215000000D+00  0.1520400394D-01
  0.1596000000D+00 -0.3191000827D-02
 s    9  1.00
  0.6665000000D+04 -0.1460000642D-03
  0.1000000000D+04 -0.1154000508D-02
  0.2280000000D+03 -0.5725002519D-02
  0.6471000000D+02 -0.2331201026D-01
  0.2106000000D+02 -0.6395502813D-01
  0.7495000000D+01 -0.1499810660D+00
  0.2797000000D+01 -0.1272620560D+00
  0.5215000000D+00  0.5445292395D+00
  0.1596000000D+00  0.5804962554D+00
 s    9  1.00
  0.6665000000D+04  0.0000000000D+00
  0.1000000000D+04  0.0000000000D+00
  0.2280000000D+03  0.0000000000D+00
  0.6471000000D+02  0.0000000000D+00
  0.2106000000D+02  0.0000000000D+00
  0.7495000000D+01  0.0000000000D+00
  0.2797000000D+01  0.0000000000D+00
  0.5215000000D+00  0.0000000000D+00
  0.1596000000D+00  0.1000000000D+01
 p    4  1.00
  0.9439000000D+01  0.3810902127D-01
  0.2002000000D+01  0.2094801169D+00
  0.5456000000D+00  0.5085572839D+00
  0.1517000000D+00  0.4688422617D+00
 p    4  1.00
  0.9439000000D+01  0.0000000000D+00
  0.2002000000D+01  0.0000000000D+00
  0.5456000000D+00  0.0000000000D+00
  0.1517000000D+00  0.1000000000D+01
 d    1  1.00
  0.5500000000D+00  0.1000000000D+01
  
   6 0
 s    4  1.00
  0.1301000000D+02  0.1968498999D-01
  0.1962000000D+01  0.1379769298D+00
  0.4446000000D+00  0.4781477569D+00
  0.1220000000D+00  0.5012397451D+00
 s    4  1.00
  0.1301000000D+02  0.0000000000D+00
  0.1962000000D+01  0.0000000000D+00
  0.4446000000D+00  0.0000000000D+00
  0.1220000000D+00  0.1000000000D+01
 p    1  1.00
  0.7270000000D+00  0.1000000000D+01
  
   7 0
 s    4  1.00
  0.1301000000D+02  0.1968498999D-01
  0.1962000000D+01  0.1379769298D+00
  0.4446000000D+00  0.4781477569D+00
  0.1220000000D+00  0.5012397451D+00
 s    4  1.00
  0.1301000000D+02  0.0000000000D+00
  0.1962000000D+01  0.0000000000D+00
  0.4446000000D+00  0.0000000000D+00
  0.1220000000D+00  0.1000000000D+01
 p    1  1.00
  0.7270000000D+00  0.1000000000D+01
  
   8 0
 s    4  1.00
  0.1301000000D+02  0.1968498999D-01
  0.1962000000D+01  0.1379769298D+00
  0.4446000000D+00  0.4781477569D+00
  0.1220000000D+00  0.5012397451D+00
 s    4  1.00
  0.1301000000D+02  0.0000000000D+00
  0.1962000000D+01  0.0000000000D+00
  0.4446000000D+00  0.0000000000D+00
  0.1220000000D+00  0.1000000000D+01
 p    1  1.00
  0.7270000000D+00  0.1000000000D+01


[MO]
 Sym=      1.1
 Ene=     -11.2362
 Spin= Alpha
 Occup=    2.000000
1 0.72183780373008
2 0.005316213807167
3 -0.005789151692179
4 0.000000070267943
5 -0.000000232238599
6 -0.000982970848974
7 0.000000583494572
8 0.000000478307427
9 0.000257367602690
10 0.000199647040463
11 0.000200737614821
12 -0.000400384655284
13 0.000001313490853
14 0.000000324254953
15 0.000000235829229
16 -0.000146891223015
17 0.001032976957927
18 0.000148116534411
19 0.000248103247793
20 -0.000123765999843
21 -0.000145171082876
22 0.001031447181955
23 0.000140996715292
24 -0.000251938560603
25 -0.000123533203670
26 -0.000145249359555
27 0.001031903770079
28 -0.000288643325800
29 0.000004641722815
30 -0.000123645754198
31 0.69399345740111
32 0.005059240305654
33 -0.005460701750961
34 0.000000343740935
35 -0.000000136262144
36 0.000965743890136
37 -0.000001075793579
38 0.000000495211218
39 -0.000296038490014
40 0.000186122167764
41 0.000187745603147
42 -0.000373867770911
43 -0.000001244182360
44 0.000000067471778
45 -0.000000334567620
46 -0.000148858256078
47 0.000999425499691
48 -0.000134283235435
49 0.000240947121556
50 0.000122547494139
51 -0.000146640318636
52 0.000998313459945
53 0.000275507152103
54 -0.000003698106441
55 0.000122174126704
56 -0.000147251899699
57 0.000997886564258
58 -0.000141660739928
59 -0.000236410405289
60 0.000122418347319
 Sym=      2.1
 Ene=     -11.2361
 Spin= Alpha
 Occup=    2.000000
1 0.69434599831183
2 0.006432879971285
3 -0.008243333260495
4 -0.000000073192899
5 -0.000000434473070
6 -0.000421605871642
7 0.000000320493115
8 0.000001926860169
9 -0.000985175958201
10 0.000332573955312
11 0.000333460790198
12 -0.000666034745510
13 0.000001108646003
14 0.000000291938573
15 0.000000285890168
16 0.000048209896391
17 0.000833827674860
18 0.000168346400313
19 0.000281789653414
20 -0.000030623720853
21 0.000050529309614
22 0.000833738051494
23 0.000159940779102
24 -0.000286283151740
25 -0.000030233214045
26 0.000050042994217
27 0.000833223675137
28 -0.000327916902710
29 0.000004920810458
30 -0.000030363349483
31 -0.72217674530640
32 -0.006636775272190
33 0.008464529659375
34 -0.000000358798192
35 0.000000405987583
36 -0.000460132960439
37 0.000000845032981
38 -0.000001793915706
39 -0.000974179627428
40 -0.000339984453387
41 -0.000341243687170
42 0.000681228140557
43 0.000001140706599
44 -0.000000031051495
45 0.000000403632503
46 -0.000042377810885
47 -0.000873771506132
48 0.000165247358684
49 -0.000296374340320
50 -0.000035497638030
51 -0.000044629316044
52 -0.000873213874242
53 -0.000339023022949
54 0.000004902380274
55 -0.000035123614397
56 -0.000044592283980
57 -0.000873564823558
58 0.000174001043647
59 0.000290922349129
60 -0.000035136403495
 Sym=      3.1
 Ene=      -0.9152
 Spin= Alpha
 Occup=    2.000000
1 -0.019982718406570
2 0.50776968575837
3 -0.11241740094000
4 0.000005320324250
5 -0.000047474040852
6 -0.099876562704152
7 0.000025453482964
8 0.000041874211726
9 0.011082873578361
10 -0.000684281073258
11 -0.000681381456624
12 0.001365662529882
13 -0.000000403865700
14 0.000001779655184
15 0.000001570950744
16 0.25147678906013
17 -0.10222023604041
18 -0.010113097707239
19 -0.016934486352486
20 0.001877538638906
21 0.25147294257232
22 -0.10219850692621
23 -0.009599278773117
24 0.017224577365722
25 0.001883777095338
26 0.25146583554121
27 -0.10219462831574
28 0.019716452236808
29 -0.000278734820684
30 0.001891285628355
31 -0.019982189515307
32 0.50774284321536
33 -0.11241389880169
34 0.000058391231754
35 -0.000035353533636
36 0.099879962670669
37 -0.000035987693007
38 0.000044194491775
39 -0.011087267263789
40 -0.000683919586251
41 -0.000682566692703
42 0.001366486278954
43 -0.000000039395175
44 -0.000000235110572
45 -0.000001594262132
46 0.25145891865094
47 -0.10221371172143
48 0.009604799701218
49 -0.017226284810427
50 -0.001879309446140
51 0.25147296330400
52 -0.10219413430880
53 -0.019716450809609
54 0.000305422118031
55 -0.001883678498253
56 0.25145588260633
57 -0.10219163797233
58 0.010103092296715
59 0.016931913093896
60 -0.001891253932129
 Sym=      4.1
 Ene=      -0.8734
 Spin= Alpha
 Occup=    2.000000
1 -0.015885770908846
2 0.53539806469927
3 -0.12330311830422
4 -0.000029934777151
5 -0.000077136144084
6 -0.099356482749820
7 0.000019061584756
8 0.000062651256460
9 0.017593696347006
10 0.003134468158655
11 0.003132922028606
12 -0.006267390187261
13 0.000000579113660
14 0.000001867454815
15 0.000003021825495
16 0.26037718725072
17 -0.10607043994587
18 -0.010042099632741
19 -0.016816633665612
20 0.003180961980023
21 0.26042186549316
22 -0.10604873971303
23 -0.009534446736132
24 0.017105736190025
25 0.003187453327087
26 0.26042691658323
27 -0.10606136384376
28 0.019580960387115
29 -0.000278491377338
30 0.003193732059572
31 0.015886432846186
32 -0.53541368927724
33 0.12330991625907
34 -0.000060630239801
35 0.000075605702655
36 -0.099376036372422
37 0.000034292782237
38 -0.000061650134256
39 0.017598284884829
40 -0.003134090670913
41 -0.003133600214746
42 0.006267690885659
43 0.000000150791315
44 -0.000001007614990
45 0.000003977066440
46 -0.26038685941971
47 0.10607498864226
48 -0.009537976531842
49 0.017108529070802
50 0.003182519389001
51 -0.26043277001139
52 0.10605874748350
53 0.019581451528051
54 -0.000301529237904
55 0.003186996479361
56 -0.26044450632589
57 0.10606005928086
58 -0.010035556204832
59 -0.016817047418846
60 0.003194226251875
 Sym=      5.1
 Ene=      -0.5707
 Spin= Alpha
 Occup=    2.000000
1 -0.000004345355135
2 0.000105843260901
3 0.000014675072344
4 0.002051809888100
5 0.44744200779268
6 0.000076582064752
7 -0.000459401804572
8 -0.078922979441810
9 -0.000030109698236
10 0.000557285940048
11 -0.000561824928026
12 0.000004538987978
13 0.016061310783091
14 -0.000063280875291
15 -0.007428657053299
16 0.37378016833183
17 -0.10616791851965
18 -0.010010423817940
19 -0.008002725395056
20 0.004108739750031
21 -0.37814940568533
22 0.10742675371576
23 0.009695379384517
24 -0.008495824907561
25 -0.004154697867592
26 0.004246866612174
27 -0.001215005213157
28 0.000257721350579
29 0.008828395035765
30 0.000044062913072
31 -0.000003975503112
32 0.000122698490592
33 0.000010690758668
34 -0.002040703134649
35 0.44772476995289
36 -0.000122148438955
37 0.000456315592164
38 -0.078982352205563
39 0.000043655046650
40 -0.000678796424464
41 0.000677624386841
42 0.000001172037623
43 -0.016057419048812
44 -0.000060698926144
45 0.007443955017953
46 0.38040874117107
47 -0.10805388378362
48 0.009673989743425
49 -0.008593188617540
50 -0.004184896958837
51 -0.008602196379688
52 0.002434822561951
53 0.000416581058119
54 0.008829814670280
55 0.000096163549678
56 -0.37190965933160
57 0.10565562734620
58 -0.010033848289222
59 -0.007916727425112
60 0.004092188231039
 Sym=      6.1
 Ene=      -0.5705
 Spin= Alpha
 Occup=    2.000000
1 -0.000001304655841
2 0.000077153924347
3 -0.000005367909400
4 0.44780666101003
5 0.002052970873278
6 0.000127814923734
7 -0.078934365258837
8 -0.000457634930074
9 -0.000035783365315
10 -0.013921833442958
11 0.013925577712259
12 -0.000003744269301
13 0.000770029371412
14 -0.007449279951144
15 -0.000063434856833
16 0.22452301224977
17 -0.063739041762858
18 0.002799470435396
19 -0.010068718480712
20 0.002472404645008
21 0.20985538027390
22 -0.059589736066822
23 0.003487060273789
24 0.009651187203381
25 0.002307173231882
26 -0.43440728249231
27 0.12333770629601
28 -0.013938406897959
29 0.000359827545137
30 -0.004781974298231
31 0.000000955319902
32 -0.000129043765212
33 0.000007024290671
34 0.44737917656052
35 -0.002063848522517
36 -0.000048903587662
37 -0.078844489102355
38 0.000458421435546
39 0.000000853851314
40 0.013921144929824
41 -0.013920731760135
42 -0.000000413169689
43 -0.000658448357290
44 0.007432011450708
45 -0.000061273013498
46 -0.21321579466416
47 0.060528640170983
48 0.003383938511989
49 0.009725444079034
50 0.002345964085798
51 0.43401942956479
52 -0.12322445644151
53 -0.013926243501822
54 0.000314211260504
55 -0.004772580923762
56 -0.22081871071236
57 0.062701564729578
58 0.002904020589566
59 -0.009982181688275
60 0.002428530608796
 Sym=      7.1
 Ene=      -0.5383
 Spin= Alpha
 Occup=    2.000000
1 -0.000002026227762
2 0.000175458805966
3 -0.000002072771427
4 0.001693132002512
5 0.46042754445758
6 0.000040440710087
7 -0.000408229914495
8 -0.086600488681388
9 -0.000022573645010
10 0.000614333379834
11 -0.000608876787713
12 -0.000005456592121
13 0.017184422280010
14 -0.000081374826168
15 -0.014590640857779
16 0.39666517208604
17 -0.10067255455441
18 -0.010539375841152
19 -0.008179019387800
20 0.004931297460105
21 -0.40165976326442
22 0.10194013221534
23 0.010200137287531
24 -0.008714367045014
25 -0.004992279215225
26 0.004974808167132
27 -0.001260776699680
28 0.000287333915253
29 0.009527190254987
30 0.000060773995512
31 0.000002634024409
32 -0.000174552546669
33 0.000000112325633
34 -0.005715957182750
35 -0.46017997047512
36 0.000103051350093
37 0.000985030356453
38 0.086566655100498
39 -0.000040689054318
40 0.000469573965773
41 -0.000475905027231
42 0.000006331061459
43 0.017176466347334
44 -0.000155291810188
45 -0.014595553800477
46 -0.39962699943281
47 0.10142362340464
48 -0.010235292062645
49 0.008625410354243
50 0.004971574597193
51 0.001265538177342
52 -0.000323813760830
53 -0.000190558399431
54 -0.009524921379254
55 -0.000015800088306
56 0.39839293415399
57 -0.10110992730258
58 0.010492251156008
59 0.008264165867874
60 -0.004957902125079
 Sym=      8.1
 Ene=      -0.5381
 Spin= Alpha
 Occup=    2.000000
1 0.000001573119962
2 -0.000075319609563
3 0.000000301519542
4 -0.46011368936964
5 0.005706361152438
6 -0.000125675237934
7 0.086466529321084
8 -0.000981529675840
9 0.000039225557992
10 0.014887394456144
11 -0.014892120529003
12 0.000004726072859
13 -0.000533262173502
14 0.014595797309128
15 -0.000153323657077
16 -0.23130000172996
17 0.058666408489682
18 -0.003355975013421
19 0.010441864785674
20 -0.002878597707144
21 -0.22931912192559
22 0.058165627345484
23 -0.003726125382867
24 -0.010291768940621
25 -0.002851734755393
26 0.46065062144251
27 -0.11684583748942
28 0.014417573816557
29 -0.000216797289716
30 0.005732944713583
31 0.000003077814326
32 -0.000063235181675
33 -0.000014417565493
34 0.46049929141492
35 -0.001705779895630
36 -0.000016286373320
37 -0.086521826725538
38 0.000411703859184
39 -0.000003891880925
40 0.014903172781199
41 -0.014896995470699
42 -0.000006177310500
43 -0.000718313360760
44 0.014596566138583
45 -0.000079876978380
46 -0.22603343961371
47 0.057329403769911
48 0.003807651305021
49 0.010227630611321
50 0.002810807447826
51 0.46098109009801
52 -0.11693133540733
53 -0.014428162055632
54 0.000339134873433
55 -0.005732153959519
56 -0.23485177646988
57 0.059566716387018
58 0.003283290963520
59 -0.010515099075052
60 0.002921155540581
 Sym=      9.1
 Ene=      -0.3437
 Spin= Alpha
 Occup=    1.876650
1 -0.004532268285327
2 0.14746315597972
3 0.043248825682735
4 -0.000188905050866
5 -0.000102274707897
6 0.55453948705244
7 -0.000000678134709
8 0.000001675008922
9 0.022571537959102
10 -0.011080750294772
11 -0.011086964761942
12 0.022167715056714
13 -0.000007071310773
14 -0.000008780915472
15 -0.000010330305480
16 -0.077688614089952
17 0.007277481621179
18 0.001194914456010
19 0.002005583778407
20 0.010901625077204
21 -0.077597350000986
22 0.007317785161943
23 0.001135325427562
24 -0.002041627858841
25 0.010899064464009
26 -0.077579885372514
27 0.007322863871311
28 -0.002339860448106
29 0.000033329496426
30 0.010898626113933
31 -0.004532016667535
32 0.14749391224620
33 0.043250445361249
34 -0.000017154686677
35 -0.000185831332095
36 -0.55453905408124
37 -0.000005449384048
38 -0.000001596318227
39 -0.022569242851099
40 -0.011079292863482
41 -0.011087680846837
42 0.022166973710319
43 0.000007608370965
44 -0.000004031152491
45 0.000011265013561
46 -0.077700465657069
47 0.007284773253098
48 -0.001139660530938
49 0.002038779950408
50 -0.010901750174283
51 -0.077586984106444
52 0.007304848025319
53 0.002335491242486
54 -0.000037460095142
55 -0.010897625150402
56 -0.077587942308905
57 0.007334178822105
58 -0.001200135850269
59 -0.002008885709780
60 -0.010898885976028
 Sym=     10.1
 Ene=       0.2104
 Spin= Alpha
 Occup=    0.123350
1 0.020873840270465
2 0.37794157019197
3 0.034741792493421
4 -0.000248893098428
5 -0.000142111146028
6 0.83343657697102
7 0.000017329625564
8 0.000020345912114
9 -0.039932964748105
10 -0.014931986806276
11 -0.014938666444290
12 0.029870653250566
13 -0.000007584515883
14 -0.000028477820010
15 -0.000022146764454
16 -0.046428967833349
17 0.008450549739626
18 0.000396689297029
19 0.000667688690573