
 Working directory              : /scratch/cc//molpro.6SGWxq8aW2/
 Global scratch directory       : /scratch/cc//molpro.6SGWxq8aW2/
 Wavefunction directory         : /home/chimica2/cavallotti/wfu/
 Main file repository           : /scratch/cc//molpro.6SGWxq8aW2/

 id        : polimi

 Nodes     nprocs
 node-6-11    1
 Distribution of processes:   nprocs(total)=    2   nprocs(compute)=    1   nprocs(helper)=    1
 GA implementation: MPI file
 GA implementation (serial work in mppx): MPI file

 Using customized tuning parameters: mindgm=1; mindgv=20; mindgc=4; mindgr=1; noblas=0; minvec=7
 default implementation of scratch files=df  


 Variables initialized (1009), CPU time= 0.00 sec
  memory,         400 ,m
 
 symmetry, nosym; orient, noorient
 angstrom
 geomtyp=xyz
 geometry={
 5
 rotational dynamics
 C, -0.0813318, 0.0542053, -0.110777
 H, 0.538869, 0.526093, 0.634333
 H, -0.133935, 0.464681, -1.1064
 H, -0.646328, -0.82959, 0.138636
 H, 1.2098, -0.806597, 1.65243
 }
 
  basis=cc-pvdz
  {multi;closed, 4;occ, 6;wf, 10,1,0,;state,1;maxiter,40}
  if (iterations.ge.0) then
     {rs2,shift=0.2;orbital,IGNORE_ERROR;state,1}
     molpro_energy = energy +   40.192865169999997
  else
     molpro_energy = 10.0
  endif
 Commands initialized (810), CPU time= 0.01 sec, 661 directives.
 Default parameters read. Elapsed time= 0.16 sec

 Checking input...
 Passed
1


                                         ***  PROGRAM SYSTEM MOLPRO  ***
                                       Copyright, TTI GmbH Stuttgart, 2015
                                    Version 2021.2 linked Jun  2 2021 16:00:59


 **********************************************************************************************************************************
 LABEL *                                                                                 
  64 bit serial version                                                                  DATE: 03-Jun-23          TIME: 09:11:57  
 **********************************************************************************************************************************

 SHA1:             1987c3f1b0c3ae76932bc24993909f2d7ae6b1f1
 **********************************************************************************************************************************

 Memory per process:       400 MW
 Total memory per node:    400 MW

 GA preallocation disabled
 GA check disabled

 Variable memory set to 400.0 MW

 SETTING GEOMTYP        =    XYZ
 ZSYMEL=NOSYM
 ZUNIT=ANG

 SETTING BASIS          =    CC-PVDZ


 Recomputing integrals since basis changed


 Using spherical harmonics

 Library entry C      S cc-pVDZ              selected for orbital group  1
 Library entry C      P cc-pVDZ              selected for orbital group  1
 Library entry C      D cc-pVDZ              selected for orbital group  1
 Library entry H      S cc-pVDZ              selected for orbital group  2
 Library entry H      P cc-pVDZ              selected for orbital group  2


 PROGRAM * SEWARD (Integral evaluation for generally contracted gaussian basis sets)     Author: Roland Lindh, 1990

 Geometry written to block  1 of record 700


 Point group  C1  



 ATOMIC COORDINATES

 NR  ATOM    CHARGE       X              Y              Z

   1  C       6.00   -0.153694827    0.102433172   -0.209338191
   2  H       1.00    1.018314827    0.994171686    1.198715642
   3  H       1.00   -0.253100469    0.878119825   -2.090792984
   4  H       1.00   -1.221382907   -1.567697896    0.261984071
   5  H       1.00    2.286190666   -1.524247423    3.122640140

 Bond lengths in Bohr (Angstrom)

 1-2  2.037503326  1-3  2.037509118  1-4  2.037508354
     ( 1.078200327)     ( 1.078203392)     ( 1.078202988)

 Bond angles

  2-1-3  119.97241030   2-1-4  120.02070043   3-1-4  120.00661013

 NUCLEAR CHARGE:                   10
 NUMBER OF PRIMITIVE AOS:          55
 NUMBER OF SYMMETRY AOS:           54
 NUMBER OF CONTRACTIONS:           34   (   34A   )
 NUMBER OF INNER CORE ORBITALS:     0   (    0A   )
 NUMBER OF OUTER CORE ORBITALS:     1   (    1A   )
 NUMBER OF VALENCE ORBITALS:        8   (    8A   )


 NUCLEAR REPULSION ENERGY   11.70938796

 Eigenvalues of metric

         1 0.146E-01 0.336E-01 0.352E-01 0.419E-01 0.487E-01 0.528E-01 0.763E-01 0.113E+00


 Contracted 2-electron integrals neglected if value below      1.0D-11
 AO integral compression algorithm  1   Integral accuracy      1.0D-11

     1.311 MB (compressed) written to integral file ( 60.9%)


 NUMBER OF SORTED TWO-ELECTRON INTEGRALS:     177310.     BUFFER LENGTH:  32768
 NUMBER OF SEGMENTS:   1  SEGMENT LENGTH:     177310      RECORD LENGTH: 524288

 Memory used in sort:       0.73 MW

 SORT1 READ      219389. AND WROTE      172163. INTEGRALS IN      1 RECORDS. CPU TIME:     0.01 SEC, REAL TIME:     0.01 SEC
 SORT2 READ      172163. AND WROTE      177310. INTEGRALS IN      5 RECORDS. CPU TIME:     0.02 SEC, REAL TIME:     0.03 SEC

 FILE SIZES:   FILE 1:    31.4 MBYTE,  FILE 4:     4.2 MBYTE,   TOTAL:     35.6 MBYTE

 OPERATOR DM      FOR CENTER  0  COORDINATES:    0.000000    0.000000    0.000000


 **********************************************************************************************************************************
 DATASETS  * FILE   NREC   LENGTH (MB)   RECORD NAMES
              1      19       29.48       500      610      700      900      950      970     1000      129      960     1100   
                                          VAR    BASINP    GEOM    SYMINP    ZMAT    AOBASIS   BASIS     P2S    ABASIS      S 
                                         1400     1410     1200     1210     1080     1600     1650     1300     1700   
                                           T        V       H0       H01     AOSYM     SMH    MOLCAS    ERIS     OPER   

 PROGRAMS   *        TOTAL       INT
 CPU TIMES  *         0.41      0.25
 REAL TIME  *         0.88 SEC
 DISK USED  *        34.26 MB
 **********************************************************************************************************************************

 PROGRAM * MULTI (Direct Multiconfiguration SCF)       Authors: P.J. Knowles, H.-J. Werner (1984)
                                                                D.A. Kreplin, P.J. Knowles, H.-J. Werner (2019)

 Number of closed-shell orbitals:   4 (   4 )
 Number of active  orbitals:        2 (   2 )
 Number of external orbitals:      28 (  28 )

 State symmetry 1

 Number of active electrons:   2    Spin symmetry=Singlet   Space symmetry=1
 Number of states:             1
 Number of CSFs:               3   (4 determinants, 4 intermediate states)

 Orbital guess generated from atomic densities. Full valence occupancy:    9

 Wavefunction dump at record             2140.2

 Convergence thresholds  0.10E-04 (gradient)  0.10E-05 (energy)
 
 Number of orbital rotations:  176  ( 8 closed/active, 112 closed/virtual, 0 active/active, 56 active/virtual )
 Total number of variables:    180
 
  Second-order MCSCF: L-BFGS accelerated
 
 ITER  MIC  NCI  NEG     ENERGY(VAR)    ENERGY(PROJ) ENERGY CHANGE       GRAD(0)  GRAD(ORB)   GRAD(CI)      STEP      TIME
   1    6    5    0    -40.02935128     -40.05402244   -0.02467116    0.15703791 0.00054494 0.00000000  0.16E+00      0.09
   2    8    7    0    -40.05394870     -40.05395715   -0.00000846    0.00379146 0.00000078 0.00000000  0.28E-02      0.21
   3    6    6    0    -40.05395716     -40.05395716   -0.00000000    0.00000292 0.00000000 0.00000000  0.24E-05      0.30

 CONVERGENCE REACHED!  Final gradient:    0.00000000 ( 0.71E-10)
                       Final energy:    -40.05395716
 
 First order charge density matrix for state 1.1 saved on record 2140.2 (density set 1)
 
 Results for state 1.1
 =====================
 !MCSCF STATE 1.1 Energy                       -40.053957156521
 Nuclear energy                                 11.70938796
 Kinetic energy                                 40.01264085
 One electron energy                           -76.07417479
 Two electron energy                            24.31082967
 Virial ratio                                    2.00103258
 
 !MCSCF STATE 1.1 Dipole moment                 -0.07071143     0.06054889    -0.07278693
 Dipole moment /Debye                           -0.17973052     0.15389994    -0.18500591
 
 No non-zero expectation values
 
 
 Natural orbital dump at molpro section 2140.2 (Orbital set 2)


 **********************************************************************************************************************************
 DATASETS  * FILE   NREC   LENGTH (MB)   RECORD NAMES
              1      20       29.78       500      610      700      900      950      970     1000      129      960     1100   
                                          VAR    BASINP    GEOM    SYMINP    ZMAT    AOBASIS   BASIS     P2S    ABASIS      S 
                                         1400     1410     1200     1210     1080     1600     1650     1300     1700     1380   
                                           T        V       H0       H01     AOSYM     SMH    MOLCAS    ERIS     OPER     JKOP   

              2       4        2.72       700     1000      520     2140   
                                         GEOM     BASIS   MCVARS    MCSCF   

 PROGRAMS   *        TOTAL     MULTI       INT
 CPU TIMES  *         0.65      0.24      0.25
 REAL TIME  *         1.29 SEC
 DISK USED  *        34.26 MB
 **********************************************************************************************************************************


 PROGRAM * RS2 (Multireference RS Perturbation Theory)     Authors: H.-J. Werner (1993), P. Celani (1998)


 Level shift= 0.20

 Convergence thresholds:  THRVAR = 1.00D-08  THRDEN = 1.00D-06

 Number of optimized states: 1  Roots:    1
 Number of reference states: 1  Roots:    1

 Reference symmetry:                   1   Singlet 
 Number of electrons:                 10
 Maximum number of shells:             4
 Maximum number of spin couplings:     5

 Reference space:        3 conf        3 CSFs
 N elec internal:       15 conf       15 CSFs
 N-1 el internal:       23 conf       32 CSFs
 N-2 el internal:       25 conf       52 CSFs

 Number of electrons in valence space:                      8
 Maximum number of open shell orbitals in reference space:  2
 Maximum number of open shell orbitals in internal spaces:  6


 Number of core orbitals:           1 (   1 )
 Number of closed-shell orbitals:   3 (   3 )
 Number of active  orbitals:        2 (   2 )
 Number of external orbitals:      28 (  28 )

 Molecular orbitals read from record     2140.2  Type=MCSCF/NATURAL (state 1.1)

 Integral transformation finished. Total CPU:   0.01 sec, npass=  1  Memory used:   0.11 MW


 Number of p-space configurations:   3

 Reference wavefunction optimized for reference space (refopt=1)

 State     Reference Energy 
     1       -40.05395716

 Number of blocks in overlap matrix:     2   Smallest eigenvalue:  0.10D+01
 Number of N-2 electron functions:      22
 Number of N-1 electron functions:      32

 Number of internal configurations:                   15
 Number of singly external configurations:           896
 Number of doubly external configurations:          8680
 Total number of contracted configurations:         9591
 Total number of uncontracted configurations:      21351

 Weight factors for SA-density in H0:    1.000000

 FIMAX=  0.30D-01  FXMAX=  0.89D-13  DIAG=  F  T  NOREF=1  NOINT=0  IHPPD=2

 Nuclear energy:                      11.70938796
 Core energy:                        -35.75393726
 Zeroth-order valence energy:         -4.44312630
 Zeroth-order total energy:          -28.48767560
 First-order energy:                 -11.56628156

 Using uncontracted singles

 Diagonal Coupling coefficients finished.               Storage:     883 words, CPU-Time:      0.00 seconds.
 Energy denominators for pairs finished in 0 passes.    Storage:    2295 words, CPU-time:      0.00 seconds.

 A level shift of 0.20 is applied.

  ITER. STATE  ROOT     SQ.NORM     CORR.ENERGY   TOTAL ENERGY   ENERGY CHANGE       DEN1      VAR(S)    VAR(P)      TIME
    1     1     1     1.00652754    -0.00130551   -40.05526267    -0.00130551    -0.12812028  0.65D-02  0.36D-01     0.02
    2     1     1     1.04253885    -0.13664403   -40.19060118    -0.13533852     0.00001051  0.22D-04  0.12D-04     0.02
    3     1     1     1.04255328    -0.13670756   -40.19066471    -0.00006353    -0.00003825  0.17D-06  0.51D-07     0.02
    4     1     1     1.04257318    -0.13671189   -40.19066905    -0.00000433    -0.00000051  0.15D-08  0.66D-09     0.03
    5     1     1     1.04257356    -0.13671196   -40.19066912    -0.00000007    -0.00000024  0.24D-10  0.54D-11     0.03

 Energies without level shift correction:

    5     1     1     1.04257356    -0.12819725   -40.18215441

 Energy contributions for state 1.1:
 ===================================

            Energy contr.      SQ.Norm of FOWF
 Space I     -0.00011471          0.00007544
 Space S     -0.01368154          0.00659320
 Space P     -0.11440099          0.03590492


 =====================================
 Analysis of CPU times by interactions
 =====================================

       I      S      P

 I   0.0%
 S   0.0%   0.0%
 P   0.0%   0.0%   0.0%

 Initialization:  66.7%
 Other:           33.3%

 Total CPU:        0.0 seconds
 =====================================



 gnormi=  1.00007544  gnorms=  0.00659320  gnormp=  0.03590492  gnorm=  1.04257356
 ecorri= -0.00011471  ecorrs= -0.01368154  ecorrp= -0.11440099  ecorr= -0.13671196

 Reference coefficients greater than 0.0500000
 =============================================
 22220           0.8158870
 22202          -0.5782114


 RESULTS FOR STATE 1.1
 =====================

 Coefficient of reference function:   C(0) = 1.00000000 (fixed)   1.00000000 (relaxed)

 Energy contributions of configuration classes

 CLASS          SQ.NORM        ECORR1        ECORR2
 +++++++++++++++++++++++++++++++++++++++++++++++++++
 Internals    0.00007544   -0.00011471    0.13646729
 Singles      0.00659320   -0.01368154   -0.02918050
 Pairs        0.03590492   -0.11440099   -0.24399874
 Total        1.04257356   -0.12819723   -0.13671196
 +++++++++++++++++++++++++++++++++++++++++++++++++++


 Reference energy                     -40.05395716
 Nuclear energy                        11.70938796
 Kinetic energy                        40.10730452
 One electron energy                  -76.01155054
 Two electron energy                   24.11149345
 Virial quotient                       -1.00207854
 Correlation energy                    -0.13671196
 !RSPT2 STATE 1.1 Energy              -40.190669117318

 Properties without orbital relaxation:

 !RSPT2 STATE 1.1 Dipole moment        -0.07266762     0.06177567    -0.07455653
 Dipole moment /Debye                  -0.18470268     0.15701809    -0.18950380


 **********************************************************************************************************************************
 DATASETS  * FILE   NREC   LENGTH (MB)   RECORD NAMES
              1      20       29.78       500      610      700      900      950      970     1000      129      960     1100   
                                          VAR    BASINP    GEOM    SYMINP    ZMAT    AOBASIS   BASIS     P2S    ABASIS      S 
                                         1400     1410     1200     1210     1080     1600     1650     1300     1700     1380   
                                           T        V       H0       H01     AOSYM     SMH    MOLCAS    ERIS     OPER     JKOP   

              2       4        2.72       700     1000      520     2140   
                                         GEOM     BASIS   MCVARS    MCSCF   

 PROGRAMS   *        TOTAL       RS2     MULTI       INT
 CPU TIMES  *         0.71      0.06      0.24      0.25
 REAL TIME  *         1.44 SEC
 DISK USED  *        34.26 MB
 **********************************************************************************************************************************
 SETTING MOLPRO_ENERGY  =         0.00219605  AU                              

 RS2/cc-pVDZ energy=    -40.190669117318

             RS2           MULTI
    -40.19066912    -40.05395716
 **********************************************************************************************************************************
 Molpro calculation terminated
