
 Working directory              : /scratch/cc//molpro.AUT3xldzCl/
 Global scratch directory       : /scratch/cc//molpro.AUT3xldzCl/
 Wavefunction directory         : /home/chimica2/cavallotti/wfu/
 Main file repository           : /scratch/cc//molpro.AUT3xldzCl/

 id        : polimi

 Nodes     nprocs
 node-6-10    1
 Distribution of processes:   nprocs(total)=    2   nprocs(compute)=    1   nprocs(helper)=    1
 GA implementation: MPI file
 GA implementation (serial work in mppx): MPI file

 Using customized tuning parameters: mindgm=1; mindgv=20; mindgc=4; mindgr=1; noblas=0; minvec=7
 default implementation of scratch files=df  


 Variables initialized (1009), CPU time= 0.00 sec
  memory,         400 ,m
 
 symmetry, nosym; orient, noorient
 angstrom
 geomtyp=xyz
 geometry={
 5
 rotational dynamics
 C, 0.0981985, -0.106433, 0.0453017
 H, 0.932578, -0.630003, -0.393107
 H, 0.179614, 0.945127, 0.269154
 H, -0.818334, -0.633397, 0.256955
 H, -1.46309, 1.58556, -0.672403
 }
 
  basis=cc-pvdz
  {multi;closed, 4;occ, 6;wf, 10,1,0,;state,1;maxiter,40}
  if (iterations.ge.0) then
     {rs2,shift=0.2;orbital,IGNORE_ERROR;state,1}
     molpro_energy = energy +   40.192865169999997
  else
     molpro_energy = 10.0
  endif
 Commands initialized (810), CPU time= 0.00 sec, 661 directives.
 Default parameters read. Elapsed time= 0.15 sec

 Checking input...
 Passed
1


                                         ***  PROGRAM SYSTEM MOLPRO  ***
                                       Copyright, TTI GmbH Stuttgart, 2015
                                    Version 2021.2 linked Jun  2 2021 16:00:59


 **********************************************************************************************************************************
 LABEL *                                                                                 
  64 bit serial version                                                                  DATE: 03-Jun-23          TIME: 09:12:07  
 **********************************************************************************************************************************

 SHA1:             1987c3f1b0c3ae76932bc24993909f2d7ae6b1f1
 **********************************************************************************************************************************

 Memory per process:       400 MW
 Total memory per node:    400 MW

 GA preallocation disabled
 GA check disabled

 Variable memory set to 400.0 MW

 SETTING GEOMTYP        =    XYZ
 ZSYMEL=NOSYM
 ZUNIT=ANG

 SETTING BASIS          =    CC-PVDZ


 Recomputing integrals since basis changed


 Using spherical harmonics

 Library entry C      S cc-pVDZ              selected for orbital group  1
 Library entry C      P cc-pVDZ              selected for orbital group  1
 Library entry C      D cc-pVDZ              selected for orbital group  1
 Library entry H      S cc-pVDZ              selected for orbital group  2
 Library entry H      P cc-pVDZ              selected for orbital group  2


 PROGRAM * SEWARD (Integral evaluation for generally contracted gaussian basis sets)     Author: Roland Lindh, 1990

 Geometry written to block  1 of record 700


 Point group  C1  



 ATOMIC COORDINATES

 NR  ATOM    CHARGE       X              Y              Z

   1  C       6.00    0.185568271   -0.201129221    0.085607806
   2  H       1.00    1.762317010   -1.190533128   -0.742864568
   3  H       1.00    0.339421268    1.786031183    0.508627345
   4  H       1.00   -1.546427138   -1.196946858    0.485574576
   5  H       1.00   -2.764839396    2.996274154   -1.270657515

 Bond lengths in Bohr (Angstrom)

 1-2  2.037504148  1-3  2.037504048  1-4  2.037506879
     ( 1.078200762)     ( 1.078200709)     ( 1.078202207)

 Bond angles

  2-1-3  119.97235828   2-1-4  120.02076396   3-1-4  120.00659871

 NUCLEAR CHARGE:                   10
 NUMBER OF PRIMITIVE AOS:          55
 NUMBER OF SYMMETRY AOS:           54
 NUMBER OF CONTRACTIONS:           34   (   34A   )
 NUMBER OF INNER CORE ORBITALS:     0   (    0A   )
 NUMBER OF OUTER CORE ORBITALS:     1   (    1A   )
 NUMBER OF VALENCE ORBITALS:        8   (    8A   )


 NUCLEAR REPULSION ENERGY   11.63982206

 Eigenvalues of metric

         1 0.149E-01 0.343E-01 0.352E-01 0.419E-01 0.512E-01 0.534E-01 0.772E-01 0.117E+00


 Contracted 2-electron integrals neglected if value below      1.0D-11
 AO integral compression algorithm  1   Integral accuracy      1.0D-11

     1.311 MB (compressed) written to integral file ( 60.3%)


 NUMBER OF SORTED TWO-ELECTRON INTEGRALS:     177310.     BUFFER LENGTH:  32768
 NUMBER OF SEGMENTS:   1  SEGMENT LENGTH:     177310      RECORD LENGTH: 524288

 Memory used in sort:       0.73 MW

 SORT1 READ      219389. AND WROTE      172147. INTEGRALS IN      1 RECORDS. CPU TIME:     0.00 SEC, REAL TIME:     0.02 SEC
 SORT2 READ      172147. AND WROTE      177310. INTEGRALS IN      5 RECORDS. CPU TIME:     0.02 SEC, REAL TIME:     0.03 SEC

 FILE SIZES:   FILE 1:    31.4 MBYTE,  FILE 4:     4.2 MBYTE,   TOTAL:     35.6 MBYTE

 OPERATOR DM      FOR CENTER  0  COORDINATES:    0.000000    0.000000    0.000000


 **********************************************************************************************************************************
 DATASETS  * FILE   NREC   LENGTH (MB)   RECORD NAMES
              1      19       29.47       500      610      700      900      950      970     1000      129      960     1100   
                                          VAR    BASINP    GEOM    SYMINP    ZMAT    AOBASIS   BASIS     P2S    ABASIS      S 
                                         1400     1410     1200     1210     1080     1600     1650     1300     1700   
                                           T        V       H0       H01     AOSYM     SMH    MOLCAS    ERIS     OPER   

 PROGRAMS   *        TOTAL       INT
 CPU TIMES  *         0.43      0.28
 REAL TIME  *         0.89 SEC
 DISK USED  *        34.26 MB
 **********************************************************************************************************************************

 PROGRAM * MULTI (Direct Multiconfiguration SCF)       Authors: P.J. Knowles, H.-J. Werner (1984)
                                                                D.A. Kreplin, P.J. Knowles, H.-J. Werner (2019)

 Number of closed-shell orbitals:   4 (   4 )
 Number of active  orbitals:        2 (   2 )
 Number of external orbitals:      28 (  28 )

 State symmetry 1

 Number of active electrons:   2    Spin symmetry=Singlet   Space symmetry=1
 Number of states:             1
 Number of CSFs:               3   (4 determinants, 4 intermediate states)

 Orbital guess generated from atomic densities. Full valence occupancy:    9

 Wavefunction dump at record             2140.2

 Convergence thresholds  0.10E-04 (gradient)  0.10E-05 (energy)
 
 Number of orbital rotations:  176  ( 8 closed/active, 112 closed/virtual, 0 active/active, 56 active/virtual )
 Total number of variables:    180
 
  Second-order MCSCF: L-BFGS accelerated
 
 ITER  MIC  NCI  NEG     ENERGY(VAR)    ENERGY(PROJ) ENERGY CHANGE       GRAD(0)  GRAD(ORB)   GRAD(CI)      STEP      TIME
   1    6    5    0    -40.04174241     -40.06240736   -0.02066495    0.14857367 0.00036713 0.00000000  0.16E+00      0.11
   2    9    8    0    -40.06230525     -40.06231237   -0.00000711    0.00309319 0.00000005 0.00000000  0.29E-02      0.25
   3    5    5    0    -40.06231237     -40.06231237   -0.00000000    0.00000211 0.00000000 0.00000000  0.34E-05      0.32

 CONVERGENCE REACHED!  Final gradient:    0.00000000 ( 0.37E-10)
                       Final energy:    -40.06231237
 
 First order charge density matrix for state 1.1 saved on record 2140.2 (density set 1)
 
 Results for state 1.1
 =====================
 !MCSCF STATE 1.1 Energy                       -40.062312368755
 Nuclear energy                                 11.63982206
 Kinetic energy                                 39.97320387
 One electron energy                           -75.93764003
 Two electron energy                            24.23550560
 Virial ratio                                    2.00222921
 
 !MCSCF STATE 1.1 Dipole moment                  0.09682001    -0.09079664     0.06893361
 Dipole moment /Debye                            0.24609191    -0.23078203     0.17521177
 
 No non-zero expectation values
 
 
 Natural orbital dump at molpro section 2140.2 (Orbital set 2)


 **********************************************************************************************************************************
 DATASETS  * FILE   NREC   LENGTH (MB)   RECORD NAMES
              1      20       29.77       500      610      700      900      950      970     1000      129      960     1100   
                                          VAR    BASINP    GEOM    SYMINP    ZMAT    AOBASIS   BASIS     P2S    ABASIS      S 
                                         1400     1410     1200     1210     1080     1600     1650     1300     1700     1380   
                                           T        V       H0       H01     AOSYM     SMH    MOLCAS    ERIS     OPER     JKOP   

              2       4        2.72       700     1000      520     2140   
                                         GEOM     BASIS   MCVARS    MCSCF   

 PROGRAMS   *        TOTAL     MULTI       INT
 CPU TIMES  *         0.68      0.25      0.28
 REAL TIME  *         1.34 SEC
 DISK USED  *        34.26 MB
 **********************************************************************************************************************************


 PROGRAM * RS2 (Multireference RS Perturbation Theory)     Authors: H.-J. Werner (1993), P. Celani (1998)


 Level shift= 0.20

 Convergence thresholds:  THRVAR = 1.00D-08  THRDEN = 1.00D-06

 Number of optimized states: 1  Roots:    1
 Number of reference states: 1  Roots:    1

 Reference symmetry:                   1   Singlet 
 Number of electrons:                 10
 Maximum number of shells:             4
 Maximum number of spin couplings:     5

 Reference space:        3 conf        3 CSFs
 N elec internal:       15 conf       15 CSFs
 N-1 el internal:       23 conf       32 CSFs
 N-2 el internal:       25 conf       52 CSFs

 Number of electrons in valence space:                      8
 Maximum number of open shell orbitals in reference space:  2
 Maximum number of open shell orbitals in internal spaces:  6


 Number of core orbitals:           1 (   1 )
 Number of closed-shell orbitals:   3 (   3 )
 Number of active  orbitals:        2 (   2 )
 Number of external orbitals:      28 (  28 )

 Molecular orbitals read from record     2140.2  Type=MCSCF/NATURAL (state 1.1)

 Integral transformation finished. Total CPU:   0.00 sec, npass=  1  Memory used:   0.11 MW


 Number of p-space configurations:   3

 Reference wavefunction optimized for reference space (refopt=1)

 State     Reference Energy 
     1       -40.06231237

 Number of blocks in overlap matrix:     2   Smallest eigenvalue:  0.10D+01
 Number of N-2 electron functions:      22
 Number of N-1 electron functions:      32

 Number of internal configurations:                   15
 Number of singly external configurations:           896
 Number of doubly external configurations:          8680
 Total number of contracted configurations:         9591
 Total number of uncontracted configurations:      21351

 Weight factors for SA-density in H0:    1.000000

 FIMAX=  0.29D-01  FXMAX=  0.73D-13  DIAG=  F  T  NOREF=1  NOINT=0  IHPPD=2

 Nuclear energy:                      11.63982206
 Core energy:                        -35.74223017
 Zeroth-order valence energy:         -4.47784914
 Zeroth-order total energy:          -28.58025726
 First-order energy:                 -11.48205511

 Using uncontracted singles

 Diagonal Coupling coefficients finished.               Storage:     883 words, CPU-Time:      0.00 seconds.
 Energy denominators for pairs finished in 0 passes.    Storage:    2295 words, CPU-time:      0.00 seconds.

 A level shift of 0.20 is applied.

  ITER. STATE  ROOT     SQ.NORM     CORR.ENERGY   TOTAL ENERGY   ENERGY CHANGE       DEN1      VAR(S)    VAR(P)      TIME
    1     1     1     1.00679969    -0.00135994   -40.06367231    -0.00135994    -0.12782920  0.68D-02  0.36D-01     0.02
    2     1     1     1.04254814    -0.13645478   -40.19876715    -0.13509485    -0.00001892  0.23D-04  0.15D-04     0.02
    3     1     1     1.04257667    -0.13652688   -40.19883925    -0.00007210    -0.00004418  0.22D-06  0.50D-07     0.02
    4     1     1     1.04259643    -0.13653124   -40.19884361    -0.00000436    -0.00000095  0.17D-08  0.92D-09     0.02
    5     1     1     1.04259694    -0.13653135   -40.19884372    -0.00000010    -0.00000030  0.29D-10  0.63D-11     0.03
    6     1     1     1.04259707    -0.13653137   -40.19884374    -0.00000002    -0.00000002  0.35D-12  0.14D-12     0.03

 Energies without level shift correction:

    6     1     1     1.04259707    -0.12801196   -40.19032433

 Energy contributions for state 1.1:
 ===================================

            Energy contr.      SQ.Norm of FOWF
 Space I     -0.00018916          0.00011835
 Space S     -0.01411831          0.00691518
 Space P     -0.11370449          0.03556354


 =====================================
 Analysis of CPU times by interactions
 =====================================

       I      S      P

 I   0.0%
 S   0.0%   0.0%
 P   0.0%   0.0%   0.0%

 Initialization:  33.3%
 Other:           66.7%

 Total CPU:        0.0 seconds
 =====================================



 gnormi=  1.00011835  gnorms=  0.00691518  gnormp=  0.03556354  gnorm=  1.04259707
 ecorri= -0.00018916  ecorrs= -0.01411831  ecorrp= -0.11370449  ecorr= -0.13653137

 Reference coefficients greater than 0.0500000
 =============================================
 22220           0.8456004
 22202          -0.5338163


 RESULTS FOR STATE 1.1
 =====================

 Coefficient of reference function:   C(0) = 1.00000000 (fixed)   1.00000000 (relaxed)

 Energy contributions of configuration classes

 CLASS          SQ.NORM        ECORR1        ECORR2
 +++++++++++++++++++++++++++++++++++++++++++++++++++
 Internals    0.00011835   -0.00018916    0.13612787
 Singles      0.00691518   -0.01411831   -0.03011581
 Pairs        0.03556354   -0.11370449   -0.24254343
 Total        1.04259707   -0.12801196   -0.13653137
 +++++++++++++++++++++++++++++++++++++++++++++++++++


 Reference energy                     -40.06231237
 Nuclear energy                        11.63982206
 Kinetic energy                        40.07019248
 One electron energy                  -75.87858126
 Two electron energy                   24.03991546
 Virial quotient                       -1.00321065
 Correlation energy                    -0.13653137
 !RSPT2 STATE 1.1 Energy              -40.198843742716

 Properties without orbital relaxation:

 !RSPT2 STATE 1.1 Dipole moment         0.09817315    -0.09212907     0.07077291
 Dipole moment /Debye                   0.24953127    -0.23416875     0.17988680


 **********************************************************************************************************************************
 DATASETS  * FILE   NREC   LENGTH (MB)   RECORD NAMES
              1      20       29.77       500      610      700      900      950      970     1000      129      960     1100   
                                          VAR    BASINP    GEOM    SYMINP    ZMAT    AOBASIS   BASIS     P2S    ABASIS      S 
                                         1400     1410     1200     1210     1080     1600     1650     1300     1700     1380   
                                           T        V       H0       H01     AOSYM     SMH    MOLCAS    ERIS     OPER     JKOP   

              2       4        2.72       700     1000      520     2140   
                                         GEOM     BASIS   MCVARS    MCSCF   

 PROGRAMS   *        TOTAL       RS2     MULTI       INT
 CPU TIMES  *         0.75      0.06      0.25      0.28
 REAL TIME  *         1.48 SEC
 DISK USED  *        34.26 MB
 **********************************************************************************************************************************
 SETTING MOLPRO_ENERGY  =        -0.00597857  AU                              

 RS2/cc-pVDZ energy=    -40.198843742716

             RS2           MULTI
    -40.19884374    -40.06231237
 **********************************************************************************************************************************
 Molpro calculation terminated
