 Entering Gaussian System, Link 0=g09
 Input=geom.com
 Output=geom.log
 Initial command:
 /software/cinetica/g09d1/g09d01/d01/build-node-6-2-59348/src/main/l1.exe "/scratch/cc/140691/Gau-162548.inp" -scrdir="/scratch/cc/140691/"
 Entering Link 1 = /software/cinetica/g09d1/g09d01/d01/build-node-6-2-59348/src/main/l1.exe PID=    162549.
  
 Copyright (c) 1988,1990,1992,1993,1995,1998,2003,2009,2013,
            Gaussian, Inc.  All Rights Reserved.
  
 This is part of the Gaussian(R) 09 program.  It is based on
 the Gaussian(R) 03 system (copyright 2003, Gaussian, Inc.),
 the Gaussian(R) 98 system (copyright 1998, Gaussian, Inc.),
 the Gaussian(R) 94 system (copyright 1995, Gaussian, Inc.),
 the Gaussian 92(TM) system (copyright 1992, Gaussian, Inc.),
 the Gaussian 90(TM) system (copyright 1990, Gaussian, Inc.),
 the Gaussian 88(TM) system (copyright 1988, Gaussian, Inc.),
 the Gaussian 86(TM) system (copyright 1986, Carnegie Mellon
 University), and the Gaussian 82(TM) system (copyright 1983,
 Carnegie Mellon University). Gaussian is a federally registered
 trademark of Gaussian, Inc.
  
 This software contains proprietary and confidential information,
 including trade secrets, belonging to Gaussian, Inc.
  
 This software is provided under written license and may be
 used, copied, transmitted, or stored only in accord with that
 written license.
  
 The following legend is applicable only to US Government
 contracts under FAR:
  
                    RESTRICTED RIGHTS LEGEND
  
 Use, reproduction and disclosure by the US Government is
 subject to restrictions as set forth in subparagraphs (a)
 and (c) of the Commercial Computer Software - Restricted
 Rights clause in FAR 52.227-19.
  
 Gaussian, Inc.
 340 Quinnipiac St., Bldg. 40, Wallingford CT 06492
  
  
 ---------------------------------------------------------------
 Warning -- This program may not be used in any manner that
 competes with the business of Gaussian, Inc. or will provide
 assistance to any competitor of Gaussian, Inc.  The licensee
 of this program is prohibited from giving any competitor of
 Gaussian, Inc. access to this program.  By using this program,
 the user acknowledges that Gaussian, Inc. is engaged in the
 business of creating and licensing software in the field of
 computational chemistry and represents and warrants to the
 licensee that it is not a competitor of Gaussian, Inc. and that
 it will not use this program in any manner prohibited above.
 ---------------------------------------------------------------
  

 Cite this work as:
 Gaussian 09, Revision D.01,
 M. J. Frisch, G. W. Trucks, H. B. Schlegel, G. E. Scuseria, 
 M. A. Robb, J. R. Cheeseman, G. Scalmani, V. Barone, B. Mennucci, 
 G. A. Petersson, H. Nakatsuji, M. Caricato, X. Li, H. P. Hratchian, 
 A. F. Izmaylov, J. Bloino, G. Zheng, J. L. Sonnenberg, M. Hada, 
 M. Ehara, K. Toyota, R. Fukuda, J. Hasegawa, M. Ishida, T. Nakajima, 
 Y. Honda, O. Kitao, H. Nakai, T. Vreven, J. A. Montgomery, Jr., 
 J. E. Peralta, F. Ogliaro, M. Bearpark, J. J. Heyd, E. Brothers, 
 K. N. Kudin, V. N. Staroverov, T. Keith, R. Kobayashi, J. Normand, 
 K. Raghavachari, A. Rendell, J. C. Burant, S. S. Iyengar, J. Tomasi, 
 M. Cossi, N. Rega, J. M. Millam, M. Klene, J. E. Knox, J. B. Cross, 
 V. Bakken, C. Adamo, J. Jaramillo, R. Gomperts, R. E. Stratmann, 
 O. Yazyev, A. J. Austin, R. Cammi, C. Pomelli, J. W. Ochterski, 
 R. L. Martin, K. Morokuma, V. G. Zakrzewski, G. A. Voth, 
 P. Salvador, J. J. Dannenberg, S. Dapprich, A. D. Daniels, 
 O. Farkas, J. B. Foresman, J. V. Ortiz, J. Cioslowski, 
 and D. J. Fox, Gaussian, Inc., Wallingford CT, 2013.
 
 ******************************************
 Gaussian 09:  EM64L-G09RevD.01 24-Apr-2013
                 3-Jun-2023 
 ******************************************
 %mem=400MW
 %chk=tmp
 %NProcShared= 32
 Will use up to   32 processors via shared memory.
 ----------------------------------------------------------------------
 # uwb97xd/aug-cc-pvtz opt=(noeig,intern,maxcyc=50) # int=ultrafine nos
 ym freq iop(7/33=1) guess=(mix,always)
 ----------------------------------------------------------------------
 1/6=50,10=7,11=1,14=-1,18=40,26=4,38=1/1,3;
 2/12=2,15=1,17=6,18=5,29=3,40=1/2;
 3/5=16,6=1,7=10,11=2,16=1,25=1,30=1,71=1,74=-58,75=-5,116=2/1,2,3;
 4/13=-1/1;
 5/5=2,38=5/2;
 6/7=2,8=2,9=2,10=2,28=1/1;
 7/29=1,30=1,33=1/1,2,3,16;
 1/6=50,10=7,11=1,14=-1,18=40,26=4/3(2);
 2/15=1,29=3/2;
 99//99;
 2/15=1,29=3/2;
 3/5=16,6=1,7=10,11=2,16=1,25=1,30=1,71=1,74=-58,75=-5,116=2/1,2,3;
 4/13=-1/1;
 5/5=2,38=5/2;
 7/30=1,33=1/1,2,3,16;
 1/6=50,11=1,14=-1,18=40,26=4/3(-5);
 2/15=1,29=3/2;
 6/7=2,8=2,9=2,10=2,19=2,28=1/1;
 99/9=1/99;
 ------
 geom 0
 ------
 Symbolic Z-matrix:
 Charge =  0 Multiplicity = 1
 C1
 H2                   C1   R1
 H3                   C1   R2       H2   A2
 H4                   C1   R3       H2   A3       H3   D3       0
 H21                  C1   BB       H2   ANG1     H3   DH1      0
       Variables:
  R1                    1.0791                   
  R2                    1.0791                   
  R3                    1.0791                   
  A2                  117.1143                   
  A3                  117.1221                   
  D3                  213.1119                   
  DH1                 106.5501                   
  ANG1                 99.8829                   
       Constants:
  BB                    3.8                      
 

 GradGradGradGradGradGradGradGradGradGradGradGradGradGradGradGradGradGrad
 Berny optimization.
 Initialization pass.
                       ----------------------------
                       !    Initial Parameters    !
                       ! (Angstroms and Degrees)  !
 ----------------------                            ----------------------
 !      Name          Value   Derivative information (Atomic Units)     !
 ------------------------------------------------------------------------
 !       R1          1.0791   estimate D2E/DX2                          !
 !       R2          1.0791   estimate D2E/DX2                          !
 !       R3          1.0791   estimate D2E/DX2                          !
 !       A2        117.1143   estimate D2E/DX2                          !
 !       A3        117.1221   estimate D2E/DX2                          !
 !       D3        213.1119   estimate D2E/DX2                          !
 !       DH1       106.5501   estimate D2E/DX2                          !
 !      ANG1        99.8829   estimate D2E/DX2                          !
 !       BB          3.8      Frozen                                    !
 ------------------------------------------------------------------------
 Trust Radius=3.00D-01 FncErr=1.00D-07 GrdErr=1.00D-06
 Number of steps in this run=     50 maximum allowed number of steps=    100.
 GradGradGradGradGradGradGradGradGradGradGradGradGradGradGradGradGradGrad

 ---------------------------------------------------------------------------------------------------
                            Z-MATRIX (ANGSTROMS AND DEGREES)
   CD    Cent   Atom    N1       Length/X        N2       Alpha/Y        N3        Beta/Z          J
 ---------------------------------------------------------------------------------------------------
      1      1  C 
      2      2  H        1   1.079100(     1)
      3      3  H        1   1.079100(     2)      2  117.114(     5)
      4      4  H        1   1.079100(     3)      2  117.122(     6)      3  213.112(     8)      0
      5      5  H        1   3.800000(     4)      2   99.883(     7)      3  106.550(     9)      0
 ---------------------------------------------------------------------------------------------------
                         Z-Matrix orientation:                         
 ---------------------------------------------------------------------
 Center     Atomic      Atomic             Coordinates (Angstroms)
 Number     Number       Type             X           Y           Z
 ---------------------------------------------------------------------
      1          6           0        0.000000    0.000000    0.000000
      2          1           0        0.000000    0.000000    1.079100
      3          1           0        0.960506    0.000000   -0.491818
      4          1           0       -0.804469    0.524665   -0.491949
      5          1           0       -1.066381   -3.588516   -0.652213
 ---------------------------------------------------------------------
                    Distance matrix (angstroms):
                    1          2          3          4          5
     1  C    0.000000
     2  H    1.079100   0.000000
     3  H    1.079100   1.841292   0.000000
     4  H    1.079100   1.841369   1.841306   0.000000
     5  H    3.800000   4.124568   4.124493   4.124626   0.000000
 Symmetry turned off by external request.
 Stoichiometry    CH4
 Framework group  C1[X(CH4)]
 Deg. of freedom     9
 Full point group                 C1      NOp   1
 Rotational constants (GHZ):    147.9014650     32.1934259     32.1930678
 Standard basis: Aug-CC-pVTZ (5D, 7F)
   138 basis functions,   180 primitive gaussians,   155 cartesian basis functions
     5 alpha electrons        5 beta electrons
       nuclear repulsion energy        10.9095852635 Hartrees.
 NAtoms=    5 NActive=    5 NUniq=    5 SFac= 1.00D+00 NAtFMM=   60 NAOKFM=F Big=F
 Integral buffers will be    131072 words long.
 Raffenetti 2 integral format.
 Two-electron integral symmetry is turned off.
 Nuclear repulsion after empirical dispersion term =       10.9092527240 Hartrees.
 One-electron integrals computed using PRISM.
 NBasis=   138 RedAO= T EigKep=  1.11D-04  NBF=   138
 NBsUse=   138 1.00D-06 EigRej= -1.00D+00 NBFU=   138
 ExpMin= 2.53D-02 ExpMax= 8.24D+03 ExpMxC= 2.81D+02 IAcc=3 IRadAn=         5 AccDes= 0.00D+00
 Harris functional with IExCor= 4639 and IRadAn=       5 diagonalized for initial guess.
 HarFok:  IExCor= 4639 AccDes= 0.00D+00 IRadAn=         5 IDoV= 1 UseB2=F ITyADJ=14
 ICtDFT=  3500011 ScaDFX=  1.000000  1.000000  1.000000  1.000000
 FoFCou: FMM=F IPFlag=           0 FMFlag=      100000 FMFlg1=           0
         NFxFlg=           0 DoJE=T BraDBF=F KetDBF=T FulRan=T
         wScrn=  0.000000 ICntrl=     500 IOpCl=  0 I1Cent=   200000004 NGrid=           0
         NMat0=    1 NMatS0=      1 NMatT0=    0 NMatD0=    1 NMtDS0=    0 NMtDT0=    0
 Symmetry not used in FoFCou.
 Mixing orbitals, IMix= 1 IMixAn=  0 NRI=1 NE=    5 Coef=  7.07106781D-01  7.07106781D-01
 Mixing orbitals, IMix= 1 IMixAn=  0 NRI=1 NE=    5 Coef= -7.07106781D-01  7.07106781D-01
 Initial guess <Sx>= 0.0000 <Sy>= 0.0000 <Sz>= 0.0000 <S**2>= 1.0000 S= 0.6180
 Keep R1 and R2 ints in memory in canonical form, NReq=186088252.
 Requested convergence on RMS density matrix=1.00D-08 within 128 cycles.
 Requested convergence on MAX density matrix=1.00D-06.
 Requested convergence on             energy=1.00D-06.
 No special actions if energy rises.
 SCF Done:  E(UwB97XD) =  -40.3398060369     A.U. after   16 cycles
            NFock= 16  Conv=0.26D-08     -V/T= 2.0067
 <Sx>= 0.0000 <Sy>= 0.0000 <Sz>= 0.0000 <S**2>= 1.0005 S= 0.6183
 <L.S>=  0.00000000000    
 Annihilation of the first spin contaminant:
 S**2 before annihilation     1.0005,   after     0.0286

 **********************************************************************

            Population analysis using the SCF density.

 **********************************************************************

 Alpha  occ. eigenvalues --  -10.29685  -0.78840  -0.50553  -0.50551  -0.32394
 Alpha virt. eigenvalues --    0.03518   0.05221   0.05221   0.10875   0.13347
 Alpha virt. eigenvalues --    0.13448   0.13449   0.13661   0.20405   0.20405
 Alpha virt. eigenvalues --    0.23401   0.24363   0.24364   0.32645   0.33022
 Alpha virt. eigenvalues --    0.33023   0.34413   0.34591   0.37641   0.37641
 Alpha virt. eigenvalues --    0.38019   0.39724   0.39724   0.42020   0.47011
 Alpha virt. eigenvalues --    0.47012   0.48259   0.48260   0.53253   0.60359
 Alpha virt. eigenvalues --    0.61254   0.61254   0.67937   0.75353   0.75354
 Alpha virt. eigenvalues --    0.80391   0.80392   0.81715   0.85331   0.91065
 Alpha virt. eigenvalues --    0.91910   0.91910   0.93224   0.95081   0.95083
 Alpha virt. eigenvalues --    0.96471   1.02562   1.02567   1.03487   1.05720
 Alpha virt. eigenvalues --    1.06546   1.06548   1.12174   1.12179   1.14602
 Alpha virt. eigenvalues --    1.14603   1.16981   1.16999   1.20689   1.27146
 Alpha virt. eigenvalues --    1.37417   1.37417   1.47330   1.47333   1.49992
 Alpha virt. eigenvalues --    1.50326   1.50334   1.51529   1.51538   1.51589
 Alpha virt. eigenvalues --    1.54772   1.55951   1.72161   1.74745   1.74746
 Alpha virt. eigenvalues --    1.90063   1.90065   1.90687   2.03241   2.03243
 Alpha virt. eigenvalues --    2.07897   2.73162   2.77338   2.77338   2.92295
 Alpha virt. eigenvalues --    3.06234   3.06235   3.18795   3.32267   3.35306
 Alpha virt. eigenvalues --    3.35308   3.37766   3.38479   3.38481   3.44630
 Alpha virt. eigenvalues --    3.47314   3.47316   3.72907   3.72907   3.72924
 Alpha virt. eigenvalues --    3.74882   3.94537   3.94537   4.16669   4.17133
 Alpha virt. eigenvalues --    4.17136   4.33557   4.33560   4.36061   4.38026
 Alpha virt. eigenvalues --    4.38026   4.46796   4.47676   4.47677   4.64413
 Alpha virt. eigenvalues --    4.64414   4.66428   4.66430   4.70150   4.71551
 Alpha virt. eigenvalues --    4.84349   4.99784   4.99790   5.05521   5.05521
 Alpha virt. eigenvalues --    5.21083   5.47607   5.47613   5.86405   5.92287
 Alpha virt. eigenvalues --    6.18302   6.18309  15.93633
  Beta  occ. eigenvalues --  -10.28536  -0.74518  -0.49267  -0.49266  -0.40105
  Beta virt. eigenvalues --   -0.00793   0.04016   0.05392   0.05392   0.06442
  Beta virt. eigenvalues --    0.13169   0.13169   0.13492   0.14277   0.19552
  Beta virt. eigenvalues --    0.19553   0.20727   0.20727   0.21868   0.26868
  Beta virt. eigenvalues --    0.26869   0.30706   0.33376   0.33376   0.34580
  Beta virt. eigenvalues --    0.35359   0.36728   0.38358   0.38359   0.38633
  Beta virt. eigenvalues --    0.40820   0.40820   0.45353   0.47092   0.47092
  Beta virt. eigenvalues --    0.60447   0.60719   0.60719   0.66991   0.74426
  Beta virt. eigenvalues --    0.74427   0.75509   0.75510   0.76980   0.76980
  Beta virt. eigenvalues --    0.81197   0.81720   0.85387   0.85388   0.85702
  Beta virt. eigenvalues --    0.92692   0.92692   0.93287   0.93321   0.93322
  Beta virt. eigenvalues --    0.97093   0.98942   0.98943   1.03264   1.04742
  Beta virt. eigenvalues --    1.05495   1.05497   1.07289   1.07290   1.14241
  Beta virt. eigenvalues --    1.14243   1.14476   1.24770   1.37527   1.37529
  Beta virt. eigenvalues --    1.48350   1.48351   1.51638   1.51638   1.51707
  Beta virt. eigenvalues --    1.53223   1.54812   1.73765   1.75440   1.75441
  Beta virt. eigenvalues --    1.90561   1.91137   1.91139   2.03503   2.03506
  Beta virt. eigenvalues --    2.09712   2.40262   2.78454   2.78454   2.78487
  Beta virt. eigenvalues --    2.95387   3.08922   3.08926   3.34484   3.38038
  Beta virt. eigenvalues --    3.38041   3.38287   3.42333   3.42334   3.48402
  Beta virt. eigenvalues --    3.48405   3.48833   3.64987   3.64988   3.67725
  Beta virt. eigenvalues --    3.67725   3.71722   3.73743   3.73744   3.74966
  Beta virt. eigenvalues --    3.75282   3.82145   3.82146   3.89150   3.96192
  Beta virt. eigenvalues --    3.96193   4.18030   4.19020   4.19023   4.45828
  Beta virt. eigenvalues --    4.47843   4.47844   4.65365   4.65367   4.69892
  Beta virt. eigenvalues --    4.85954   5.00242   5.00248   5.08004   5.08005
  Beta virt. eigenvalues --    5.22198   5.48398   5.48404   5.88014   5.93466
  Beta virt. eigenvalues --    6.19136   6.19145  15.96182
          Condensed to atoms (all electrons):
               1          2          3          4          5
     1  C    5.899185   0.357335   0.357292   0.357422  -0.000172
     2  H    0.357335   0.303628   0.008300   0.008281  -0.000518
     3  H    0.357292   0.008300   0.303588   0.008290  -0.000519
     4  H    0.357422   0.008281   0.008290   0.303740  -0.000519
     5  H   -0.000172  -0.000518  -0.000519  -0.000519   0.999476
          Atomic-Atomic Spin Densities.
               1          2          3          4          5
     1  C    0.992039   0.014219   0.014257   0.014152  -0.003387
     2  H    0.014219  -0.031914   0.003576   0.003592   0.000510
     3  H    0.014257   0.003576  -0.031897   0.003585   0.000511
     4  H    0.014152   0.003592   0.003585  -0.032007   0.000511
     5  H   -0.003387   0.000510   0.000511   0.000511  -0.999267
 Mulliken charges and spin densities:
               1          2
     1  C   -0.971062   1.031279
     2  H    0.322974  -0.010018
     3  H    0.323049  -0.009969
     4  H    0.322787  -0.010169
     5  H    0.002252  -1.001124
 Sum of Mulliken charges =  -0.00000   0.00000
 Mulliken charges and spin densities with hydrogens summed into heavy atoms:
               1          2
     1  C   -0.000000   0.000000
 Electronic spatial extent (au):  <R**2>=             84.7164
 Charge=             -0.0000 electrons
 Dipole moment (field-independent basis, Debye):
    X=              0.1042    Y=              0.3505    Z=              0.0637  Tot=              0.3712
 Quadrupole moment (field-independent basis, Debye-Ang):
   XX=             -8.8359   YY=            -10.2211   ZZ=             -8.7518
   XY=             -0.4516   XZ=             -0.0819   YZ=             -0.2762
 Traceless Quadrupole moment (field-independent basis, Debye-Ang):
   XX=              0.4337   YY=             -0.9515   ZZ=              0.5178
   XY=             -0.4516   XZ=             -0.0819   YZ=             -0.2762
 Octapole moment (field-independent basis, Debye-Ang**2):
  XXX=              4.5983  YYY=             14.9948  ZZZ=              3.5508  XYY=              1.3810
  XXY=              5.1270  XXZ=              0.1515  XZZ=              1.4546  YZZ=              4.8955
  YYZ=              0.8448  XYZ=              0.2261
 Hexadecapole moment (field-independent basis, Debye-Ang**3):
 XXXX=            -26.5589 YYYY=           -127.5314 ZZZZ=            -20.3964 XXXY=            -16.1971
 XXXZ=             -3.1306 YYYX=            -16.7140 YYYZ=            -10.2228 ZZZX=             -2.8910
 ZZZY=             -9.7288 XXYY=            -25.5295 XXZZ=             -7.9409 YYZZ=            -24.5629
 XXYZ=             -3.4914 YYXZ=             -0.9448 ZZXY=             -5.4179
 N-N= 1.090925272399D+01 E-N=-1.147098338280D+02  KE= 4.007176094609D+01
                          Isotropic Fermi Contact Couplings
        Atom                 a.u.       MegaHertz       Gauss      10(-4) cm-1
     1  C(13)              0.08375      47.07538      16.79766      15.70266
     2  H(1)              -0.01088     -24.32384      -8.67935      -8.11356
     3  H(1)              -0.01088     -24.31987      -8.67793      -8.11223
     4  H(1)              -0.01089     -24.33743      -8.68420      -8.11809
     5  H(1)              -0.29146    -651.40467    -232.43738    -217.28521
 --------------------------------------------------------
       Center         ----  Spin Dipole Couplings  ----
                      3XX-RR        3YY-RR        3ZZ-RR
 --------------------------------------------------------
     1   Atom       -0.418502      0.918166     -0.499664
     2   Atom       -0.067055     -0.009222      0.076277
     3   Atom        0.046248     -0.009223     -0.037025
     4   Atom        0.022657      0.014358     -0.037015
     5   Atom       -0.002797      0.006135     -0.003338
 --------------------------------------------------------
                        XY            XZ            YZ
 --------------------------------------------------------
     1   Atom        0.435892      0.079224      0.266494
     2   Atom        0.018859     -0.000310     -0.001045
     3   Atom        0.007654     -0.058334      0.017266
     4   Atom       -0.028469      0.058287     -0.017410
     5   Atom        0.002911      0.000529      0.001781
 --------------------------------------------------------


 ---------------------------------------------------------------------------------
              Anisotropic Spin Dipole Couplings in Principal Axis System
 ---------------------------------------------------------------------------------

       Atom             a.u.   MegaHertz   Gauss  10(-4) cm-1        Axes

              Baa    -0.5481   -73.550   -26.244   -24.534 -0.0073 -0.1767  0.9842
     1 C(13)  Bbb    -0.5481   -73.548   -26.244   -24.533  0.9598 -0.2776 -0.0427
              Bcc     1.0962   147.097    52.488    49.066  0.2807  0.9443  0.1716
 
              Baa    -0.0727   -38.769   -13.834   -12.932  0.9585 -0.2850 -0.0000
     2 H(1)   Bbb    -0.0036    -1.937    -0.691    -0.646  0.2849  0.9585  0.0136
              Bcc     0.0763    40.706    14.525    13.578 -0.0039 -0.0131  0.9999
 
              Baa    -0.0727   -38.769   -13.834   -12.932  0.4369 -0.2849  0.8532
     3 H(1)   Bbb    -0.0036    -1.938    -0.692    -0.647  0.1421  0.9585  0.2473
              Bcc     0.0763    40.707    14.525    13.579  0.8882 -0.0132 -0.4592
 
              Baa    -0.0727   -38.767   -13.833   -12.931 -0.5217  0.0000  0.8531
     4 H(1)   Bbb    -0.0036    -1.934    -0.690    -0.645  0.4047  0.8803  0.2475
              Bcc     0.0763    40.701    14.523    13.577  0.7510 -0.4744  0.4593
 
              Baa    -0.0037    -1.954    -0.697    -0.652  0.6330 -0.3165  0.7065
     5 H(1)   Bbb    -0.0037    -1.954    -0.697    -0.652  0.7215 -0.0896 -0.6865
              Bcc     0.0073     3.907     1.394     1.303  0.2806  0.9443  0.1716
 

 ---------------------------------------------------------------------------------

 DipInt: DoE/N= T T RetVal/Mat= T F Init=T NMatP=  1 IDeriv=0 Min/MaxMlt=  1  1
 Entering OneElI...
 Multipole integrals L=1 to 1 MinM= 0 MaxM= 0.
 Requested accuracy = 0.1000D-12
 PrsmSu:  NPrtUS=   1 ThrOK=F IAlg=1 NPAlg=1 LenDen=           0.
 Prism:   IPart=     0 DynPar=F LinDyn=F Incr=          12.
 PRISM was handed   419324580 working-precision words and  1269 shell-pairs
 IPart=  0 NShTot=        1269 NBatch=          36 AvBLen=        35.3
 PrSmSu:  NxtVal=             13.
 Entering OneElI...
 Calculate overlap and kinetic energy integrals
    NBasis = 155  MinDer = 1  MaxDer = 1
 Requested accuracy = 0.1000D-12
 PrsmSu:  NPrtUS=  32 ThrOK=T IAlg=1 NPAlg=1 LenDen=           0.
 Prism:   IPart=     0 DynPar=F LinDyn=F Incr=           1.
 PRISM was handed    13082880 working-precision words and  1275 shell-pairs
 PRISM was handed    13082880 working-precision words and  1275 shell-pairs
 PRISM was handed    13082880 working-precision words and  1275 shell-pairs
 PRISM was handed    13082880 working-precision words and  1275 shell-pairs
 PRISM was handed    13082880 working-precision words and  1275 shell-pairs
 PRISM was handed    13082880 working-precision words and  1275 shell-pairs
 PRISM was handed    13082880 working-precision words and  1275 shell-pairs
 PRISM was handed    13082880 working-precision words and  1275 shell-pairs
 PRISM was handed    13082880 working-precision words and  1275 shell-pairs
 PRISM was handed    13082880 working-precision words and  1275 shell-pairs
 PRISM was handed    13082880 working-precision words and  1275 shell-pairs
 PRISM was handed    13082880 working-precision words and  1275 shell-pairs
 PRISM was handed    13082880 working-precision words and  1275 shell-pairs
 PRISM was handed    13082880 working-precision words and  1275 shell-pairs
 PRISM was handed    13082880 working-precision words and  1275 shell-pairs
 PRISM was handed    13082880 working-precision words and  1275 shell-pairs
 PRISM was handed    13082880 working-precision words and  1275 shell-pairs
 PRISM was handed    13082880 working-precision words and  1275 shell-pairs
 PRISM was handed    13082880 working-precision words and  1275 shell-pairs
 PRISM was handed    13082880 working-precision words and  1275 shell-pairs
 PRISM was handed    13082880 working-precision words and  1275 shell-pairs
 PRISM was handed    13082880 working-precision words and  1275 shell-pairs
 PRISM was handed    13082880 working-precision words and  1275 shell-pairs
 PRISM was handed    13082880 working-precision words and  1275 shell-pairs
 PRISM was handed    13082880 working-precision words and  1275 shell-pairs
 PRISM was handed    13082880 working-precision words and  1275 shell-pairs
 PRISM was handed    13082880 working-precision words and  1275 shell-pairs
 PRISM was handed    13082880 working-precision words and  1275 shell-pairs
 PRISM was handed    13082880 working-precision words and  1275 shell-pairs
 PRISM was handed    13082880 working-precision words and  1275 shell-pairs
 PRISM was handed    13082880 working-precision words and  1275 shell-pairs
 PRISM was handed    13082880 working-precision words and  1275 shell-pairs
 IPart=  0 NShTot=          68 NBatch=          39 AvBLen=         1.7
 IPart= 27 NShTot=          32 NBatch=          11 AvBLen=         2.9
 IPart= 28 NShTot=          32 NBatch=          11 AvBLen=         2.9
 IPart= 18 NShTot=          35 NBatch=          12 AvBLen=         2.9
 IPart= 23 NShTot=          34 NBatch=          11 AvBLen=         3.1
 IPart= 20 NShTot=          35 NBatch=          12 AvBLen=         2.9
 IPart=  7 NShTot=          45 NBatch=          21 AvBLen=         2.1
 IPart= 11 NShTot=          41 NBatch=          17 AvBLen=         2.4
 IPart= 26 NShTot=          32 NBatch=          11 AvBLen=         2.9
 IPart= 29 NShTot=          32 NBatch=          11 AvBLen=         2.9
 IPart= 13 NShTot=          40 NBatch=          17 AvBLen=         2.4
 IPart=  2 NShTot=          55 NBatch=          27 AvBLen=         2.0
 IPart= 25 NShTot=          32 NBatch=          11 AvBLen=         2.9
 IPart= 12 NShTot=          40 NBatch=          17 AvBLen=         2.4
 IPart= 30 NShTot=          30 NBatch=           9 AvBLen=         3.3
 IPart=  4 NShTot=          49 NBatch=          21 AvBLen=         2.3
 IPart= 31 NShTot=          29 NBatch=           9 AvBLen=         3.2
 IPart= 15 NShTot=          36 NBatch=          13 AvBLen=         2.8
 IPart=  1 NShTot=          59 NBatch=          30 AvBLen=         2.0
 IPart= 16 NShTot=          35 NBatch=          12 AvBLen=         2.9
 IPart= 14 NShTot=          37 NBatch=          14 AvBLen=         2.6
 IPart=  8 NShTot=          44 NBatch=          20 AvBLen=         2.2
 IPart= 21 NShTot=          35 NBatch=          12 AvBLen=         2.9
 IPart=  6 NShTot=          46 NBatch=          21 AvBLen=         2.2
 IPart= 17 NShTot=          35 NBatch=          12 AvBLen=         2.9
 IPart= 10 NShTot=          44 NBatch=          20 AvBLen=         2.2
 IPart= 24 NShTot=          32 NBatch=          11 AvBLen=         2.9
 IPart=  3 NShTot=          51 NBatch=          23 AvBLen=         2.2
 IPart= 22 NShTot=          34 NBatch=          11 AvBLen=         3.1
 IPart=  5 NShTot=          47 NBatch=          21 AvBLen=         2.2
 IPart=  9 NShTot=          44 NBatch=          20 AvBLen=         2.2
 IPart= 19 NShTot=          35 NBatch=          12 AvBLen=         2.9
 PrSmSu:  NxtVal=             33.
 Entering OneElI...
 Calculate potential energy integrals
    NBasis = 155  MinDer = 1  MaxDer = 1
 Requested accuracy = 0.1000D-12
 PrsmSu:  NPrtUS=  32 ThrOK=T IAlg=1 NPAlg=1 LenDen=           0.
 Prism:   IPart=     0 DynPar=F LinDyn=F Incr=           1.
 PRISM was handed    13084530 working-precision words and  1238 shell-pairs
 PRISM was handed    13084530 working-precision words and  1238 shell-pairs
 PRISM was handed    13084530 working-precision words and  1238 shell-pairs
 PRISM was handed    13084530 working-precision words and  1238 shell-pairs
 PRISM was handed    13084530 working-precision words and  1238 shell-pairs
 PRISM was handed    13084530 working-precision words and  1238 shell-pairs
 PRISM was handed    13084530 working-precision words and  1238 shell-pairs
 PRISM was handed    13084530 working-precision words and  1238 shell-pairs
 PRISM was handed    13084530 working-precision words and  1238 shell-pairs
 PRISM was handed    13084530 working-precision words and  1238 shell-pairs
 PRISM was handed    13084530 working-precision words and  1238 shell-pairs
 PRISM was handed    13084530 working-precision words and  1238 shell-pairs
 PRISM was handed    13084530 working-precision words and  1238 shell-pairs
 PRISM was handed    13084530 working-precision words and  1238 shell-pairs
 PRISM was handed    13084530 working-precision words and  1238 shell-pairs
 PRISM was handed    13084530 working-precision words and  1238 shell-pairs
 PRISM was handed    13084530 working-precision words and  1238 shell-pairs
 PRISM was handed    13084530 working-precision words and  1238 shell-pairs
 PRISM was handed    13084530 working-precision words and  1238 shell-pairs
 PRISM was handed    13084530 working-precision words and  1238 shell-pairs
 PRISM was handed    13084530 working-precision words and  1238 shell-pairs
 PRISM was handed    13084530 working-precision words and  1238 shell-pairs
 PRISM was handed    13084530 working-precision words and  1238 shell-pairs
 PRISM was handed    13084530 working-precision words and  1238 shell-pairs
 PRISM was handed    13084530 working-precision words and  1238 shell-pairs
 PRISM was handed    13084530 working-precision words and  1238 shell-pairs
 PRISM was handed    13084530 working-precision words and  1238 shell-pairs
 PRISM was handed    13084530 working-precision words and  1238 shell-pairs
 PRISM was handed    13084530 working-precision words and  1238 shell-pairs
 PRISM was handed    13084530 working-precision words and  1238 shell-pairs
 PRISM was handed    13084530 working-precision words and  1238 shell-pairs
 PRISM was handed    13084530 working-precision words and  1238 shell-pairs
 IPart=  0 NShTot=         315 NBatch=          63 AvBLen=         5.0
 IPart= 18 NShTot=         175 NBatch=          35 AvBLen=         5.0
 IPart= 15 NShTot=         175 NBatch=          35 AvBLen=         5.0
 IPart=  7 NShTot=         215 NBatch=          43 AvBLen=         5.0
 IPart= 11 NShTot=         200 NBatch=          40 AvBLen=         5.0
 IPart= 23 NShTot=         165 NBatch=          33 AvBLen=         5.0
 IPart= 29 NShTot=         155 NBatch=          31 AvBLen=         5.0
 IPart= 20 NShTot=         175 NBatch=          35 AvBLen=         5.0
 IPart= 25 NShTot=         160 NBatch=          32 AvBLen=         5.0
 IPart=  2 NShTot=         265 NBatch=          53 AvBLen=         5.0
 IPart= 26 NShTot=         160 NBatch=          32 AvBLen=         5.0
 IPart= 13 NShTot=         200 NBatch=          40 AvBLen=         5.0
 IPart= 12 NShTot=         200 NBatch=          40 AvBLen=         5.0
 IPart= 28 NShTot=         155 NBatch=          31 AvBLen=         5.0
 IPart= 27 NShTot=         160 NBatch=          32 AvBLen=         5.0
 IPart=  1 NShTot=         280 NBatch=          56 AvBLen=         5.0
 IPart= 16 NShTot=         175 NBatch=          35 AvBLen=         5.0
 IPart=  8 NShTot=         215 NBatch=          43 AvBLen=         5.0
 IPart=  4 NShTot=         235 NBatch=          47 AvBLen=         5.0
 IPart= 30 NShTot=         145 NBatch=          29 AvBLen=         5.0
 IPart= 14 NShTot=         185 NBatch=          37 AvBLen=         5.0
 IPart= 21 NShTot=         170 NBatch=          34 AvBLen=         5.0
 IPart=  6 NShTot=         220 NBatch=          44 AvBLen=         5.0
 IPart= 10 NShTot=         200 NBatch=          40 AvBLen=         5.0
 IPart= 17 NShTot=         175 NBatch=          35 AvBLen=         5.0
 IPart=  3 NShTot=         240 NBatch=          48 AvBLen=         5.0
 IPart= 31 NShTot=         135 NBatch=          27 AvBLen=         5.0
 IPart= 22 NShTot=         165 NBatch=          33 AvBLen=         5.0
 IPart= 24 NShTot=         160 NBatch=          32 AvBLen=         5.0
 IPart=  5 NShTot=         225 NBatch=          45 AvBLen=         5.0
 IPart=  9 NShTot=         215 NBatch=          43 AvBLen=         5.0
 IPart= 19 NShTot=         175 NBatch=          35 AvBLen=         5.0
 PrSmSu:  NxtVal=             33.
 l701 out
 I=    0 X=   4.100121494074D-02 Y=   1.379145405960D-01 Z=   2.506792560049D-02
 I=    1 X=  -3.099605393097D-01 Y=  -1.043385188123D+00 Z=  -1.895154432605D-01
 I=    2 X=   6.499962083399D-03 Y=   2.221554196341D-02 Z=   2.327876727444D+00
 I=    3 X=   2.074945272277D+00 Y=   2.225862201567D-02 Z=  -1.055097345724D+00
 I=    4 X=  -1.725950590610D+00 Y=   1.152135946209D+00 Z=  -1.055415644512D+00
 I=    5 X=  -4.553410443996D-02 Y=  -1.532249220654D-01 Z=  -2.784829394722D-02
 ICntrl=      2127.
 Calling FoFJK, ICntrl=      2127 FMM=F ISym2X=0 I1Cent= 0 IOpClX= 1 NMat=1 NMatS=1 NMatT=0.
 FoFJK:  IHMeth= 1 ICntrl=    2127 DoSepK=T KAlg= 0 I1Cent=   0 FoldK=F
 IRaf=         1 NMat=   1 IRICut=       1 DoRegI=T DoRafI=F ISym2E= 0.
 FoFCou: FMM=F IPFlag=           0 FMFlag=      100000 FMFlg1=         800
         NFxFlg=           0 DoJE=F BraDBF=F KetDBF=F FulRan=T
         wScrn=  0.000000 ICntrl=    2527 IOpCl=  0 I1Cent=           0 NGrid=           0
         NMat0=    1 NMatS0=      1 NMatT0=    0 NMatD0=    1 NMtDS0=    0 NMtDT0=    0
 Symmetry not used in FoFCou.
 FoFCou:  KetSym=F NOpSet=  1 NOpAb=1 NOp=  1.
 FoFCou:  CnvScl= 1.00D+00 Thresh= 1.00D-10 IAcrcy=      10.
 PrismS was handed   419299863 working-precision words and  1254 shell-pairs
 FoFCou: LinMIO=F DoNuc=F BraDBF=F KetDBF=F HaveP=T PDBF=F HaveZ=T HaveW=F
         NIJTC =      10 NIJTAt=       0 NIJTCD=       0 NIJTT =      10
         IJTBeg=       1 IJTEnd=      10 KLTBeg=       1 KLTEnd=      10
         IPTBeg=       1 IPTEnd=      10 IPTBCv=       1 IPTECv=      10
         IZTBeg=       1 IZTEnd=      10 IZTBCv=       1 IZTECv=      10
         IWTBeg=      11 IWTEnd=      10 IWTBCv=      11 IWTECv=      10
         INTBeg=       1 INTEnd=       0 IFTBCv=       1 IFTECv=      10
 NCel replicated for PrismC:     1
 CoulSu:  IncDef=  1024 NBBP=         786885 NTPThr=   100 NPartT=   32 Incr=         245 LDynOK=F.
 CoulSu:  NPrtUS=  32 ThrOK=T IAlg=1 NPAlg=1 LenDen=           0 LWGrdD=           0 DoCopy=F.
 Enter PrismC: JobTyp=21 DoJE=F Cont=F.
 PrismC:  IPart=     0 DynPar=T LinDyn=F Incr=         245 UseFst=F UseS4=T IGathr=2.
 Enter PrismC: JobTyp=21 DoJE=F Cont=F.
 Enter PrismC: JobTyp=21 DoJE=F Cont=F.
 Enter PrismC: JobTyp=21 DoJE=F Cont=F.
 Enter PrismC: JobTyp=21 DoJE=F Cont=F.
 Enter PrismC: JobTyp=21 DoJE=F Cont=F.
 Enter PrismC: JobTyp=21 DoJE=F Cont=F.
 Enter PrismC: JobTyp=21 DoJE=F Cont=F.
 Enter PrismC: JobTyp=21 DoJE=F Cont=F.
 Enter PrismC: JobTyp=21 DoJE=F Cont=F.
 Enter PrismC: JobTyp=21 DoJE=F Cont=F.
 Enter PrismC: JobTyp=21 DoJE=F Cont=F.
 Enter PrismC: JobTyp=21 DoJE=F Cont=F.
 PrismC was handed    13083577 working-precision words and  1254 shell-pairs
 Enter PrismC: JobTyp=21 DoJE=F Cont=F.
 PrismC was handed    13083577 working-precision words and  1254 shell-pairs
 Enter PrismC: JobTyp=21 DoJE=F Cont=F.
 PrismC was handed    13083577 working-precision words and  1254 shell-pairs
 Enter PrismC: JobTyp=21 DoJE=F Cont=F.
 PrismC was handed    13083577 working-precision words and  1254 shell-pairs
 PrismC was handed    13083577 working-precision words and  1254 shell-pairs
 Enter PrismC: JobTyp=21 DoJE=F Cont=F.
 PrismC was handed    13083577 working-precision words and  1254 shell-pairs
 Enter PrismC: JobTyp=21 DoJE=F Cont=F.
 PrismC was handed    13083577 working-precision words and  1254 shell-pairs
 Enter PrismC: JobTyp=21 DoJE=F Cont=F.
 PrismC was handed    13083577 working-precision words and  1254 shell-pairs
 Enter PrismC: JobTyp=21 DoJE=F Cont=F.
 Enter PrismC: JobTyp=21 DoJE=F Cont=F.
 PrismC was handed    13083577 working-precision words and  1254 shell-pairs
 Enter PrismC: JobTyp=21 DoJE=F Cont=F.
 PrismC was handed    13083577 working-precision words and  1254 shell-pairs
 Enter PrismC: JobTyp=21 DoJE=F Cont=F.
 PrismC was handed    13083577 working-precision words and  1254 shell-pairs
 Enter PrismC: JobTyp=21 DoJE=F Cont=F.
 PrismC was handed    13083577 working-precision words and  1254 shell-pairs
 Enter PrismC: JobTyp=21 DoJE=F Cont=F.
 PrismC was handed    13083577 working-precision words and  1254 shell-pairs
 Enter PrismC: JobTyp=21 DoJE=F Cont=F.
 PrismC was handed    13083577 working-precision words and  1254 shell-pairs
 Enter PrismC: JobTyp=21 DoJE=F Cont=F.
 PrismC was handed    13083577 working-precision words and  1254 shell-pairs
 Enter PrismC: JobTyp=21 DoJE=F Cont=F.
 PrismC was handed    13083577 working-precision words and  1254 shell-pairs
 Enter PrismC: JobTyp=21 DoJE=F Cont=F.
 PrismC was handed    13083577 working-precision words and  1254 shell-pairs
 Enter PrismC: JobTyp=21 DoJE=F Cont=F.
 PrismC was handed    13083577 working-precision words and  1254 shell-pairs
 Enter PrismC: JobTyp=21 DoJE=F Cont=F.
 PrismC was handed    13083577 working-precision words and  1254 shell-pairs
 PrismC was handed    13083577 working-precision words and  1254 shell-pairs
 PrismC was handed    13083577 working-precision words and  1254 shell-pairs
 PrismC was handed    13083577 working-precision words and  1254 shell-pairs
 PrismC was handed    13083577 working-precision words and  1254 shell-pairs
 PrismC was handed    13083577 working-precision words and  1254 shell-pairs
 PrismC was handed    13083577 working-precision words and  1254 shell-pairs
 PrismC was handed    13083577 working-precision words and  1254 shell-pairs
 PrismC was handed    13083577 working-precision words and  1254 shell-pairs
 PrismC was handed    13083577 working-precision words and  1254 shell-pairs
 PrismC was handed    13083577 working-precision words and  1254 shell-pairs
 PrismC was handed    13083577 working-precision words and  1254 shell-pairs
 Enter PrismC: JobTyp=21 DoJE=F Cont=F.
 PrismC was handed    13083577 working-precision words and  1254 shell-pairs
 PrismC was handed    13083577 working-precision words and  1254 shell-pairs
 IPart=  3 NShTot=       21896 NShNF=       21896 NShFF=           0 NBatch=         224 AvBLen=        97.8
 IPart= 12 NShTot=       24834 NShNF=       24834 NShFF=           0 NBatch=         235 AvBLen=       105.7
 IPart= 24 NShTot=       24964 NShNF=       24964 NShFF=           0 NBatch=         225 AvBLen=       111.0
 IPart= 21 NShTot=       21514 NShNF=       21514 NShFF=           0 NBatch=         248 AvBLen=        86.8
 IPart= 28 NShTot=       23067 NShNF=       23067 NShFF=           0 NBatch=         213 AvBLen=       108.3
 IPart= 31 NShTot=       18739 NShNF=       18739 NShFF=           0 NBatch=         219 AvBLen=        85.6
 IPart= 22 NShTot=       21535 NShNF=       21535 NShFF=           0 NBatch=         210 AvBLen=       102.5
 IPart= 30 NShTot=       21693 NShNF=       21693 NShFF=           0 NBatch=         155 AvBLen=       140.0
 IPart= 26 NShTot=       22680 NShNF=       22680 NShFF=           0 NBatch=         215 AvBLen=       105.5
 IPart=  1 NShTot=       22386 NShNF=       22386 NShFF=           0 NBatch=         233 AvBLen=        96.1
 IPart= 11 NShTot=       23089 NShNF=       23089 NShFF=           0 NBatch=         218 AvBLen=       105.9
 IPart= 29 NShTot=       22015 NShNF=       22015 NShFF=           0 NBatch=         222 AvBLen=        99.2
 IPart= 20 NShTot=       21837 NShNF=       21837 NShFF=           0 NBatch=         213 AvBLen=       102.5
 IPart= 25 NShTot=       23829 NShNF=       23829 NShFF=           0 NBatch=         222 AvBLen=       107.3
 IPart= 15 NShTot=       23717 NShNF=       23717 NShFF=           0 NBatch=         224 AvBLen=       105.9
 IPart=  6 NShTot=       21993 NShNF=       21993 NShFF=           0 NBatch=         270 AvBLen=        81.5
 IPart= 13 NShTot=       24540 NShNF=       24540 NShFF=           0 NBatch=         218 AvBLen=       112.6
 IPart=  8 NShTot=       20544 NShNF=       20544 NShFF=           0 NBatch=         222 AvBLen=        92.5
 IPart=  9 NShTot=       21978 NShNF=       21978 NShFF=           0 NBatch=         210 AvBLen=       104.7
 IPart= 27 NShTot=       26581 NShNF=       26581 NShFF=           0 NBatch=         228 AvBLen=       116.6
 IPart= 17 NShTot=       20096 NShNF=       20096 NShFF=           0 NBatch=         223 AvBLen=        90.1
 IPart=  2 NShTot=       22622 NShNF=       22622 NShFF=           0 NBatch=         255 AvBLen=        88.7
 IPart=  7 NShTot=       21564 NShNF=       21564 NShFF=           0 NBatch=         232 AvBLen=        92.9
 IPart= 19 NShTot=       21777 NShNF=       21777 NShFF=           0 NBatch=         267 AvBLen=        81.6
 IPart= 14 NShTot=       21834 NShNF=       21834 NShFF=           0 NBatch=         228 AvBLen=        95.8
 IPart=  4 NShTot=       20541 NShNF=       20541 NShFF=           0 NBatch=         221 AvBLen=        92.9
 IPart= 23 NShTot=       21430 NShNF=       21430 NShFF=           0 NBatch=         197 AvBLen=       108.8
 IPart= 10 NShTot=       21835 NShNF=       21835 NShFF=           0 NBatch=         260 AvBLen=        84.0
 IPart= 18 NShTot=       23602 NShNF=       23602 NShFF=           0 NBatch=         237 AvBLen=        99.6
 IPart= 16 NShTot=       21120 NShNF=       21120 NShFF=           0 NBatch=         181 AvBLen=       116.7
 IPart=  0 NShTot=       26035 NShNF=       26035 NShFF=           0 NBatch=         260 AvBLen=       100.1
 IPart=  5 NShTot=       22939 NShNF=       22939 NShFF=           0 NBatch=         230 AvBLen=        99.7
 CoulSu:  NxtVal=         870731.
 FoFCou: FMM=F IPFlag=           0 FMFlag=      100000 FMFlg1=         800
         NFxFlg=           0 DoJE=F BraDBF=F KetDBF=F FulRan=T
         wScrn=  0.000000 ICntrl=    2127 IOpCl=  1 I1Cent=           0 NGrid=           0
         NMat0=    1 NMatS0=      0 NMatT0=    1 NMatD0=    1 NMtDS0=    0 NMtDT0=    0
         CW=    0.222036    0.777964
         WU=    0.000000   12.500000
 Symmetry not used in FoFCou.
 FoFCou:  KetSym=F NOpSet=  1 NOpAb=1 NOp=  1.
 FoFCou:  CnvScl= 1.00D+00 Thresh= 1.00D-10 IAcrcy=      10.
 PrismS was handed   419298623 working-precision words and  1254 shell-pairs
 FoFCou: LinMIO=F DoNuc=F BraDBF=F KetDBF=F HaveP=T PDBF=F HaveZ=T HaveW=F
         NIJTC =      10 NIJTAt=       0 NIJTCD=       0 NIJTT =      10
         IJTBeg=       1 IJTEnd=      10 KLTBeg=       1 KLTEnd=      10
         IPTBeg=       1 IPTEnd=      10 IPTBCv=       1 IPTECv=      10
         IZTBeg=       1 IZTEnd=      10 IZTBCv=       1 IZTECv=      10
         IWTBeg=      11 IWTEnd=      10 IWTBCv=      11 IWTECv=      10
         INTBeg=       1 INTEnd=       0 IFTBCv=       1 IFTECv=      10
 NCel replicated for PrismC:     1
 CoulSu:  IncDef=  1024 NBBP=         786885 NTPThr=   100 NPartT=   32 Incr=         245 LDynOK=F.
 CoulSu:  NPrtUS=  32 ThrOK=T IAlg=1 NPAlg=1 LenDen=           0 LWGrdD=           0 DoCopy=F.
 Enter PrismC: JobTyp=21 DoJE=F Cont=F.
 Linear combination for Coulomb/exchange, wScrn=  0.000000
 CW=    0.222036    0.777964
 Enter PrismC: JobTyp=21 DoJE=F Cont=F.
 Enter PrismC: JobTyp=21 DoJE=F Cont=F.
 Linear combination for Coulomb/exchange, wScrn=  0.000000
 CW=    0.222036    0.777964
 WU=    0.000000   12.500000
 Enter PrismC: JobTyp=21 DoJE=F Cont=F.
 Linear combination for Coulomb/exchange, wScrn=  0.000000
 CW=    0.222036    0.777964
 WU=    0.000000   12.500000
 Enter PrismC: JobTyp=21 DoJE=F Cont=F.
 Linear combination for Coulomb/exchange, wScrn=  0.000000
 CW=    0.222036    0.777964
 WU=    0.000000   12.500000
 Enter PrismC: JobTyp=21 DoJE=F Cont=F.
 Linear combination for Coulomb/exchange, wScrn=  0.000000
 CW=    0.222036    0.777964
 WU=    0.000000   12.500000
 PrismC was handed    13083539 working-precision words and  1254 shell-pairs
 Enter PrismC: JobTyp=21 DoJE=F Cont=F.
 Linear combination for Coulomb/exchange, wScrn=  0.000000
 CW=    0.222036    0.777964
 WU=    0.000000   12.500000
 PrismC was handed    13083539 working-precision words and  1254 shell-pairs
 Enter PrismC: JobTyp=21 DoJE=F Cont=F.
 Linear combination for Coulomb/exchange, wScrn=  0.000000
 CW=    0.222036    0.777964
 WU=    0.000000   12.500000
 PrismC was handed    13083539 working-precision words and  1254 shell-pairs
 Enter PrismC: JobTyp=21 DoJE=F Cont=F.
 Linear combination for Coulomb/exchange, wScrn=  0.000000
 CW=    0.222036    0.777964
 WU=    0.000000   12.500000
 Enter PrismC: JobTyp=21 DoJE=F Cont=F.
 Linear combination for Coulomb/exchange, wScrn=  0.000000
 CW=    0.222036    0.777964
 WU=    0.000000   12.500000
 Enter PrismC: JobTyp=21 DoJE=F Cont=F.
 Linear combination for Coulomb/exchange, wScrn=  0.000000
 CW=    0.222036    0.777964
 WU=    0.000000   12.500000
 Enter PrismC: JobTyp=21 DoJE=F Cont=F.
 Linear combination for Coulomb/exchange, wScrn=  0.000000
 CW=    0.222036    0.777964
 WU=    0.000000   12.500000
 Enter PrismC: JobTyp=21 DoJE=F Cont=F.
 Linear combination for Coulomb/exchange, wScrn=  0.000000
 CW=    0.222036    0.777964
 WU=    0.000000   12.500000
 Enter PrismC: JobTyp=21 DoJE=F Cont=F.
 Linear combination for Coulomb/exchange, wScrn=  0.000000
 CW=    0.222036    0.777964
 WU=    0.000000   12.500000
 Enter PrismC: JobTyp=21 DoJE=F Cont=F.
 Linear combination for Coulomb/exchange, wScrn=  0.000000
 CW=    0.222036    0.777964
 WU=    0.000000   12.500000
 Enter PrismC: JobTyp=21 DoJE=F Cont=F.
 Linear combination for Coulomb/exchange, wScrn=  0.000000
 CW=    0.222036    0.777964
 WU=    0.000000   12.500000
 Enter PrismC: JobTyp=21 DoJE=F Cont=F.
 Linear combination for Coulomb/exchange, wScrn=  0.000000
 CW=    0.222036    0.777964
 PrismC was handed    13083539 working-precision words and  1254 shell-pairs
 Enter PrismC: JobTyp=21 DoJE=F Cont=F.
 Linear combination for Coulomb/exchange, wScrn=  0.000000
 CW=    0.222036    0.777964
 WU=    0.000000   12.500000
 Enter PrismC: JobTyp=21 DoJE=F Cont=F.
 Linear combination for Coulomb/exchange, wScrn=  0.000000
 CW=    0.222036    0.777964
 WU=    0.000000   12.500000
 Linear combination for Coulomb/exchange, wScrn=  0.000000
 CW=    0.222036    0.777964
 WU=    0.000000   12.500000
 PrismC was handed    13083539 working-precision words and  1254 shell-pairs
 Enter PrismC: JobTyp=21 DoJE=F Cont=F.
 Linear combination for Coulomb/exchange, wScrn=  0.000000
 CW=    0.222036    0.777964
 WU=    0.000000   12.500000
 PrismC was handed    13083539 working-precision words and  1254 shell-pairs
 Enter PrismC: JobTyp=21 DoJE=F Cont=F.
 Linear combination for Coulomb/exchange, wScrn=  0.000000
 CW=    0.222036    0.777964
 WU=    0.000000   12.500000
 Enter PrismC: JobTyp=21 DoJE=F Cont=F.
 Linear combination for Coulomb/exchange, wScrn=  0.000000
 CW=    0.222036    0.777964
 WU=    0.000000   12.500000
 Enter PrismC: JobTyp=21 DoJE=F Cont=F.
 Linear combination for Coulomb/exchange, wScrn=  0.000000
 CW=    0.222036    0.777964
 WU=    0.000000   12.500000
 PrismC was handed    13083539 working-precision words and  1254 shell-pairs
 PrismC was handed    13083539 working-precision words and  1254 shell-pairs
 PrismC was handed    13083539 working-precision words and  1254 shell-pairs
 Enter PrismC: JobTyp=21 DoJE=F Cont=F.
 Linear combination for Coulomb/exchange, wScrn=  0.000000
 CW=    0.222036    0.777964
 WU=    0.000000   12.500000
 Enter PrismC: JobTyp=21 DoJE=F Cont=F.
 Linear combination for Coulomb/exchange, wScrn=  0.000000
 CW=    0.222036    0.777964
 WU=    0.000000   12.500000
 PrismC was handed    13083539 working-precision words and  1254 shell-pairs
 WU=    0.000000   12.500000
 PrismC:  IPart=     0 DynPar=T LinDyn=F Incr=         245 UseFst=F UseS4=T IGathr=2.
 PrismC was handed    13083539 working-precision words and  1254 shell-pairs
 Enter PrismC: JobTyp=21 DoJE=F Cont=F.
 Linear combination for Coulomb/exchange, wScrn=  0.000000
 CW=    0.222036    0.777964
 WU=    0.000000   12.500000
 Enter PrismC: JobTyp=21 DoJE=F Cont=F.
 Linear combination for Coulomb/exchange, wScrn=  0.000000
 CW=    0.222036    0.777964
 WU=    0.000000   12.500000
 Enter PrismC: JobTyp=21 DoJE=F Cont=F.
 Linear combination for Coulomb/exchange, wScrn=  0.000000
 CW=    0.222036    0.777964
 WU=    0.000000   12.500000
 PrismC was handed    13083539 working-precision words and  1254 shell-pairs
 PrismC was handed    13083539 working-precision words and  1254 shell-pairs
 PrismC was handed    13083539 working-precision words and  1254 shell-pairs
 PrismC was handed    13083539 working-precision words and  1254 shell-pairs
 PrismC was handed    13083539 working-precision words and  1254 shell-pairs
 Enter PrismC: JobTyp=21 DoJE=F Cont=F.
 Linear combination for Coulomb/exchange, wScrn=  0.000000
 CW=    0.222036    0.777964
 WU=    0.000000   12.500000
 PrismC was handed    13083539 working-precision words and  1254 shell-pairs
 PrismC was handed    13083539 working-precision words and  1254 shell-pairs
 Enter PrismC: JobTyp=21 DoJE=F Cont=F.
 Linear combination for Coulomb/exchange, wScrn=  0.000000
 CW=    0.222036    0.777964
 WU=    0.000000   12.500000
 WU=    0.000000   12.500000
 PrismC was handed    13083539 working-precision words and  1254 shell-pairs
 Enter PrismC: JobTyp=21 DoJE=F Cont=F.
 Linear combination for Coulomb/exchange, wScrn=  0.000000
 CW=    0.222036    0.777964
 WU=    0.000000   12.500000
 PrismC was handed    13083539 working-precision words and  1254 shell-pairs
 PrismC was handed    13083539 working-precision words and  1254 shell-pairs
 Enter PrismC: JobTyp=21 DoJE=F Cont=F.
 Linear combination for Coulomb/exchange, wScrn=  0.000000
 CW=    0.222036    0.777964
 WU=    0.000000   12.500000
 PrismC was handed    13083539 working-precision words and  1254 shell-pairs
 PrismC was handed    13083539 working-precision words and  1254 shell-pairs
 PrismC was handed    13083539 working-precision words and  1254 shell-pairs
 PrismC was handed    13083539 working-precision words and  1254 shell-pairs
 PrismC was handed    13083539 working-precision words and  1254 shell-pairs
 PrismC was handed    13083539 working-precision words and  1254 shell-pairs
 PrismC was handed    13083539 working-precision words and  1254 shell-pairs
 PrismC was handed    13083539 working-precision words and  1254 shell-pairs
 PrismC was handed    13083539 working-precision words and  1254 shell-pairs
 PrismC was handed    13083539 working-precision words and  1254 shell-pairs
 PrismC was handed    13083539 working-precision words and  1254 shell-pairs
 IPart=  5 NShTot=       24786 NShNF=       24786 NShFF=           0 NBatch=         287 AvBLen=        86.4
 IPart=  3 NShTot=       22833 NShNF=       22833 NShFF=           0 NBatch=         284 AvBLen=        80.4
 IPart=  0 NShTot=       22654 NShNF=       22654 NShFF=           0 NBatch=         273 AvBLen=        83.0
 IPart= 17 NShTot=       19691 NShNF=       19691 NShFF=           0 NBatch=         275 AvBLen=        71.6
 IPart= 25 NShTot=       22478 NShNF=       22478 NShFF=           0 NBatch=         251 AvBLen=        89.6
 IPart=  9 NShTot=       19973 NShNF=       19973 NShFF=           0 NBatch=         206 AvBLen=        97.0
 IPart= 12 NShTot=       22771 NShNF=       22771 NShFF=           0 NBatch=         285 AvBLen=        79.9
 IPart= 24 NShTot=       20719 NShNF=       20719 NShFF=           0 NBatch=         264 AvBLen=        78.5
 IPart= 18 NShTot=       23650 NShNF=       23650 NShFF=           0 NBatch=         286 AvBLen=        82.7
 IPart= 22 NShTot=       22470 NShNF=       22470 NShFF=           0 NBatch=         232 AvBLen=        96.9
 IPart= 27 NShTot=       22340 NShNF=       22340 NShFF=           0 NBatch=         287 AvBLen=        77.8
 IPart= 15 NShTot=       19650 NShNF=       19650 NShFF=           0 NBatch=         240 AvBLen=        81.9
 IPart= 11 NShTot=       21942 NShNF=       21942 NShFF=           0 NBatch=         286 AvBLen=        76.7
 IPart= 31 NShTot=       22061 NShNF=       22061 NShFF=           0 NBatch=         247 AvBLen=        89.3
 IPart=  1 NShTot=       24393 NShNF=       24393 NShFF=           0 NBatch=         282 AvBLen=        86.5
 IPart=  2 NShTot=       19265 NShNF=       19265 NShFF=           0 NBatch=         164 AvBLen=       117.5
 IPart= 16 NShTot=       23830 NShNF=       23830 NShFF=           0 NBatch=         286 AvBLen=        83.3
 IPart= 30 NShTot=       22309 NShNF=       22309 NShFF=           0 NBatch=         277 AvBLen=        80.5
 IPart= 28 NShTot=       21641 NShNF=       21641 NShFF=           0 NBatch=         289 AvBLen=        74.9
 IPart= 21 NShTot=       24138 NShNF=       24138 NShFF=           0 NBatch=         284 AvBLen=        85.0
 IPart= 13 NShTot=       23598 NShNF=       23598 NShFF=           0 NBatch=         254 AvBLen=        92.9
 IPart= 19 NShTot=       22063 NShNF=       22063 NShFF=           0 NBatch=         248 AvBLen=        89.0
 IPart= 20 NShTot=       23228 NShNF=       23228 NShFF=           0 NBatch=         240 AvBLen=        96.8
 IPart= 26 NShTot=       21412 NShNF=       21412 NShFF=           0 NBatch=         295 AvBLen=        72.6
 IPart= 23 NShTot=       20330 NShNF=       20330 NShFF=           0 NBatch=         257 AvBLen=        79.1
 IPart=  4 NShTot=       22341 NShNF=       22341 NShFF=           0 NBatch=         265 AvBLen=        84.3
 IPart=  7 NShTot=       24103 NShNF=       24103 NShFF=           0 NBatch=         301 AvBLen=        80.1
 IPart= 10 NShTot=       26246 NShNF=       26246 NShFF=           0 NBatch=         241 AvBLen=       108.9
 IPart=  8 NShTot=       22214 NShNF=       22214 NShFF=           0 NBatch=         252 AvBLen=        88.2
 IPart= 14 NShTot=       25510 NShNF=       25510 NShFF=           0 NBatch=         260 AvBLen=        98.1
 IPart= 29 NShTot=       23464 NShNF=       23464 NShFF=           0 NBatch=         285 AvBLen=        82.3
 IPart=  6 NShTot=       23844 NShNF=       23844 NShFF=           0 NBatch=         296 AvBLen=        80.6
 CoulSu:  NxtVal=         870731.
 ReadGW:  IGet=0 IStart=           1 Next=           1 LGW=           0.
 Remaining memory in FofDFT      399.95 Mw
 CkSvGd:  ISavGI=        -1 IRadAn=       5 IRASav=       5 ISavGd=        -1.
 CalDSu:  NPrtUS=  32 ThrOK=T IAlg=1 NPAlg=2 DoDPD=T LenP=       12090 LenD1P=             0.
 IPart=  0 IRanGd=          0 ScrnBf=T ScrnGd=T RCrit=4.00D+00 DoMicB=T.
 IPart= 18         2799 of         2858 points in       3 batches and        7 microbatches, Max-NSigAt=       5 Max-NSgAt2=       5
 IPart= 29         3204 of         3568 points in       4 batches and       30 microbatches, Max-NSigAt=       5 Max-NSgAt2=       5
 IPart= 21         3227 of         3338 points in       3 batches and        7 microbatches, Max-NSigAt=       5 Max-NSgAt2=       5
 IPart= 24         2600 of         2718 points in       2 batches and       23 microbatches, Max-NSigAt=       5 Max-NSgAt2=       5
 IPart= 28         2817 of         2964 points in       3 batches and       20 microbatches, Max-NSigAt=       5 Max-NSgAt2=       5
 IPart= 30         2622 of         2642 points in       2 batches and        6 microbatches, Max-NSigAt=       5 Max-NSgAt2=       5
 IPart= 31         3202 of         3568 points in       4 batches and       28 microbatches, Max-NSigAt=       5 Max-NSgAt2=       5
 IPart= 27         3516 of         3968 points in       5 batches and       30 microbatches, Max-NSigAt=       5 Max-NSgAt2=       5
 IPart= 26         2671 of         2732 points in       2 batches and        9 microbatches, Max-NSigAt=       5 Max-NSgAt2=       5
 IPart=  4         3269 of         3548 points in       4 batches and        9 microbatches, Max-NSigAt=       5 Max-NSgAt2=       5
 IPart= 20         3194 of         3364 points in       3 batches and        8 microbatches, Max-NSigAt=       5 Max-NSgAt2=       5
 IPart= 16         3299 of         3596 points in       4 batches and       25 microbatches, Max-NSigAt=       5 Max-NSgAt2=       5
 IPart=  8         2767 of         2992 points in       3 batches and       25 microbatches, Max-NSigAt=       5 Max-NSgAt2=       5
 IPart= 15         3250 of         3596 points in       4 batches and       50 microbatches, Max-NSigAt=       5 Max-NSgAt2=       5
 IPart= 12         3779 of         4172 points in       5 batches and       30 microbatches, Max-NSigAt=       5 Max-NSgAt2=       5
 IPart= 11         3654 of         4200 points in       6 batches and       62 microbatches, Max-NSigAt=       5 Max-NSgAt2=       5
 IPart= 23         3328 of         3568 points in       4 batches and       33 microbatches, Max-NSigAt=       5 Max-NSgAt2=       5
 IPart= 19         3304 of         3562 points in       5 batches and       31 microbatches, Max-NSigAt=       5 Max-NSgAt2=       5
 IPart= 25         3568 of         3568 points in       3 batches and        9 microbatches, Max-NSigAt=       5 Max-NSgAt2=       5
 IPart= 17         3885 of         4172 points in       4 batches and       13 microbatches, Max-NSigAt=       5 Max-NSgAt2=       5
 IPart=  1         3970 of         4144 points in       4 batches and       10 microbatches, Max-NSigAt=       5 Max-NSgAt2=       5
 IPart=  5         3400 of         3568 points in       4 batches and       27 microbatches, Max-NSigAt=       5 Max-NSgAt2=       5
 IPart=  7         3600 of         3764 points in       4 batches and       26 microbatches, Max-NSigAt=       5 Max-NSgAt2=       5
 IPart=  9         4009 of         4368 points in       5 batches and       29 microbatches, Max-NSigAt=       5 Max-NSgAt2=       5
 IPart= 13         3686 of         3850 points in       4 batches and       24 microbatches, Max-NSigAt=       5 Max-NSgAt2=       5
 IPart=  3         4070 of         4214 points in       4 batches and       12 microbatches, Max-NSigAt=       5 Max-NSgAt2=       5
 IPart= 14         3882 of         4172 points in       4 batches and       11 microbatches, Max-NSigAt=       5 Max-NSgAt2=       5
 IPart= 10         3806 of         4172 points in       5 batches and       47 microbatches, Max-NSigAt=       5 Max-NSgAt2=       5
 IPart=  2         3504 of         3524 points in       3 batches and        9 microbatches, Max-NSigAt=       5 Max-NSgAt2=       5
 IPart=  6         3528 of         3564 points in       3 batches and       13 microbatches, Max-NSigAt=       5 Max-NSgAt2=       5
 IPart= 22         3923 of         4172 points in       4 batches and       14 microbatches, Max-NSigAt=       5 Max-NSgAt2=       5
 IPart=  0         3495 of         3564 points in       3 batches and       13 microbatches, Max-NSigAt=       5 Max-NSgAt2=       5
 Forces at end of L703
 I=    0 X=   4.100121494074D-02 Y=   1.379145405960D-01 Z=   2.506792560049D-02
 I=    1 X=  -3.462460575333D-03 Y=  -1.163535440584D-02 Z=  -2.118648617853D-03
 I=    2 X=   1.268525951173D-03 Y=   4.243450996250D-03 Z=  -1.450938297555D-03
 I=    3 X=  -7.183200516669D-04 Y=   4.251058330344D-03 Z=   1.790757977557D-03
 I=    4 X=   2.919863904791D-03 Y=   3.166244198284D-03 Z=   1.783361505939D-03
 I=    5 X=  -7.609228971542D-06 Y=  -2.539911903260D-05 Z=  -4.532568089067D-06
 FrcOut:
 IF    =    36 IFX   =    51 IFXYZ =    66
 IFFX  =    81 IFFFX =   201 IFLen =    15
 IFFLen=   120 IFFFLn=     0 IEDerv=   201
 LEDerv=   773 IFroze=  1163 ICStrt= 39591
 FCEst1:  Generated internal coordinate force constants:
                1             2             3             4             5 
      1  0.651591D+00
      2 -0.122167D+00  0.276949D+00
      3 -0.221832D-01 -0.746993D-01  0.674347D+00
      4 -0.999555D-01  0.109262D-01 -0.316956D-02  0.691165D-01
      5  0.109263D-01 -0.664695D-01 -0.106509D-01 -0.584866D-02  0.511956D-01
      6  0.000000D+00  0.000000D+00 -0.361033D+00  0.000000D+00  0.000000D+00
      7 -0.308086D+00  0.497807D-02  0.106571D+00  0.177382D-01  0.571624D-03
      8 -0.450221D-02 -0.664647D-01  0.145763D-01  0.125420D-02  0.435854D-02
      9  0.103404D+00  0.972202D-02 -0.152903D+00  0.346422D-01  0.111636D-02
     10 -0.236179D+00  0.105707D+00 -0.813183D-01  0.129133D-01 -0.615117D-02
     11  0.115189D+00 -0.138344D+00  0.704347D-01 -0.683364D-02  0.918823D-02
     12 -0.813207D-01  0.646384D-01 -0.152937D+00 -0.284048D-01  0.198581D-01
     13 -0.737055D-02  0.555314D-03  0.999357D-04  0.187476D-03  0.501872D-03
     14  0.554139D-03 -0.567147D-02  0.339176D-03  0.501865D-03  0.172717D-02
     15  0.996519D-04  0.338940D-03 -0.747441D-02 -0.306782D-02 -0.103235D-01
                6             7             8             9            10 
      6  0.361033D+00
      7  0.000000D+00  0.300395D+00
      8  0.000000D+00 -0.266471D-02  0.511933D-01
      9  0.000000D+00 -0.118423D+00 -0.520409D-02  0.129756D+00
     10  0.000000D+00 -0.884216D-02  0.148730D-01 -0.172685D-01  0.228444D+00
     11  0.000000D+00 -0.311365D-02  0.918651D-02 -0.608087D-02 -0.112938D+00
     12  0.000000D+00  0.111386D-01 -0.145239D-01  0.217533D-01  0.963699D-01
     13  0.000000D+00 -0.120581D-02 -0.896031D-02 -0.235491D-02  0.366355D-02
     14  0.000000D+00  0.228666D-03  0.172636D-02  0.446578D-03 -0.149160D-02
     15  0.000000D+00  0.713391D-03  0.515171D-02  0.139323D-02  0.221690D-02
               11            12            13            14            15 
     11  0.123111D+00
     12 -0.690603D-01  0.129789D+00
     13  0.769619D-02  0.221710D-02  0.472533D-02
     14 -0.314243D-02 -0.912235D-03  0.206932D-03  0.536036D-02
     15  0.470641D-02  0.139416D-02  0.378732D-04  0.126481D-03  0.468702D-02
 Quadrupole    = 3.22423251D-01-7.07399150D-01 3.84975898D-01
                -3.35735568D-01-6.09268957D-02-2.05354221D-01
 -------------------------------------------------------------------
 Center     Atomic                   Forces (Hartrees/Bohr)
 Number     Number              X              Y              Z
 -------------------------------------------------------------------
      1        6           0.003462461    0.011635354    0.002118649
      2        1          -0.001268526   -0.004243451    0.001450938
      3        1           0.000718320   -0.004251058   -0.001790758
      4        1          -0.002919864   -0.003166244   -0.001783362
      5        1           0.000007609    0.000025399    0.000004533
 -------------------------------------------------------------------
 Cartesian Forces:  Max     0.011635354 RMS     0.003804437
 From PutF, contents of force:
   1    0.1450938298D-02
   2    0.1455544542D-02
   3    0.1450324907D-02
   4    0.2582784563D-02
   5    0.2571066105D-02
   6   -0.7708370466D-02
   7   -0.4170707811D-06
   8    0.6138982405D-06
   9   -0.2689886619D-04
 -----------------------------------------------------------------------------------------------
                       Internal Coordinate Forces (Hartree/Bohr or radian)
  Cent   Atom   N1       Length/X         N2         Alpha/Y        N3         Beta/Z          J
 -----------------------------------------------------------------------------------------------
      1  C 
      2  H        1   0.001451(     1)
      3  H        1   0.001456(     2)      2   0.002583(     5)
      4  H        1   0.001450(     3)      2   0.002571(     6)      3  -0.007708(     8)     0
      5  H        1  -0.000027(     4)      2   0.000001(     7)      3  -0.000000(     9)     0
 -----------------------------------------------------------------------------------------------
 Internal  Forces:  Max     0.007708370 RMS     0.002963259
 Force constants in Cartesian coordinates: 
                1             2             3             4             5 
      1  0.651591D+00
      2 -0.122167D+00  0.276949D+00
      3 -0.221832D-01 -0.746993D-01  0.674347D+00
      4 -0.999555D-01  0.109262D-01 -0.316956D-02  0.691165D-01
      5  0.109263D-01 -0.664695D-01 -0.106509D-01 -0.584866D-02  0.511956D-01
      6  0.000000D+00  0.000000D+00 -0.361033D+00  0.000000D+00  0.000000D+00
      7 -0.308086D+00  0.497807D-02  0.106571D+00  0.177382D-01  0.571624D-03
      8 -0.450221D-02 -0.664647D-01  0.145763D-01  0.125420D-02  0.435854D-02
      9  0.103404D+00  0.972202D-02 -0.152903D+00  0.346422D-01  0.111636D-02
     10 -0.236179D+00  0.105707D+00 -0.813183D-01  0.129133D-01 -0.615117D-02
     11  0.115189D+00 -0.138344D+00  0.704347D-01 -0.683364D-02  0.918823D-02
     12 -0.813207D-01  0.646384D-01 -0.152937D+00 -0.284048D-01  0.198581D-01
     13 -0.737055D-02  0.555314D-03  0.999357D-04  0.187476D-03  0.501872D-03
     14  0.554139D-03 -0.567147D-02  0.339176D-03  0.501865D-03  0.172717D-02
     15  0.996519D-04  0.338940D-03 -0.747441D-02 -0.306782D-02 -0.103235D-01
                6             7             8             9            10 
      6  0.361033D+00
      7  0.000000D+00  0.300395D+00
      8  0.000000D+00 -0.266471D-02  0.511933D-01
      9  0.000000D+00 -0.118423D+00 -0.520409D-02  0.129756D+00
     10  0.000000D+00 -0.884216D-02  0.148730D-01 -0.172685D-01  0.228444D+00
     11  0.000000D+00 -0.311365D-02  0.918651D-02 -0.608087D-02 -0.112938D+00
     12  0.000000D+00  0.111386D-01 -0.145239D-01  0.217533D-01  0.963699D-01
     13  0.000000D+00 -0.120581D-02 -0.896031D-02 -0.235491D-02  0.366355D-02
     14  0.000000D+00  0.228666D-03  0.172636D-02  0.446578D-03 -0.149160D-02
     15  0.000000D+00  0.713391D-03  0.515171D-02  0.139323D-02  0.221690D-02
               11            12            13            14            15 
     11  0.123111D+00
     12 -0.690603D-01  0.129789D+00
     13  0.769619D-02  0.221710D-02  0.472533D-02
     14 -0.314243D-02 -0.912235D-03  0.206932D-03  0.536036D-02
     15  0.470641D-02  0.139416D-02  0.378732D-04  0.126481D-03  0.468702D-02
 FCInt: Cartesian first derivatives: 
                 1             2             3             4             5 
      1   0.000000D+00  0.000000D+00  0.000000D+00  0.000000D+00  0.000000D+00
      2   0.000000D+00  0.000000D+00  0.000000D+00  0.000000D+00  0.000000D+00
      3   0.000000D+00  0.000000D+00  0.000000D+00  0.000000D+00  0.000000D+00
 FCInt: Cartesian force constants: 
                1             2             3             4             5 
      1  0.651591D+00
      2 -0.122167D+00  0.276949D+00
      3 -0.221832D-01 -0.746993D-01  0.674347D+00
      4 -0.999555D-01  0.109262D-01 -0.316956D-02  0.691165D-01
      5  0.109263D-01 -0.664695D-01 -0.106509D-01 -0.584866D-02  0.511956D-01
      6  0.000000D+00  0.000000D+00 -0.361033D+00  0.000000D+00  0.000000D+00
      7 -0.308086D+00  0.497807D-02  0.106571D+00  0.177382D-01  0.571624D-03
      8 -0.450221D-02 -0.664647D-01  0.145763D-01  0.125420D-02  0.435854D-02
      9  0.103404D+00  0.972202D-02 -0.152903D+00  0.346422D-01  0.111636D-02
     10 -0.236179D+00  0.105707D+00 -0.813183D-01  0.129133D-01 -0.615117D-02
     11  0.115189D+00 -0.138344D+00  0.704347D-01 -0.683364D-02  0.918823D-02
     12 -0.813207D-01  0.646384D-01 -0.152937D+00 -0.284048D-01  0.198581D-01
     13 -0.737055D-02  0.555314D-03  0.999357D-04  0.187476D-03  0.501872D-03
     14  0.554139D-03 -0.567147D-02  0.339176D-03  0.501865D-03  0.172717D-02
     15  0.996519D-04  0.338940D-03 -0.747441D-02 -0.306782D-02 -0.103235D-01
                6             7             8             9            10 
      6  0.361033D+00
      7  0.000000D+00  0.300395D+00
      8  0.000000D+00 -0.266471D-02  0.511933D-01
      9  0.000000D+00 -0.118423D+00 -0.520409D-02  0.129756D+00
     10  0.000000D+00 -0.884216D-02  0.148730D-01 -0.172685D-01  0.228444D+00
     11  0.000000D+00 -0.311365D-02  0.918651D-02 -0.608087D-02 -0.112938D+00
     12  0.000000D+00  0.111386D-01 -0.145239D-01  0.217533D-01  0.963699D-01
     13  0.000000D+00 -0.120581D-02 -0.896031D-02 -0.235491D-02  0.366355D-02
     14  0.000000D+00  0.228666D-03  0.172636D-02  0.446578D-03 -0.149160D-02
     15  0.000000D+00  0.713391D-03  0.515171D-02  0.139323D-02  0.221690D-02
               11            12            13            14            15 
     11  0.123111D+00
     12 -0.690603D-01  0.129789D+00
     13  0.769619D-02  0.221710D-02  0.472533D-02
     14 -0.314243D-02 -0.912235D-03  0.206932D-03  0.536036D-02
     15  0.470641D-02  0.139416D-02  0.378732D-04  0.126481D-03  0.468702D-02
 Internal force constants: 
                1             2             3             4             5 
      1  0.361033D+00
      2  0.000000D+00  0.361033D+00
      3  0.000000D+00  0.000000D+00  0.361033D+00
      4  0.000000D+00  0.000000D+00  0.000000D+00  0.544484D-02
      5  0.000000D+00  0.000000D+00  0.000000D+00  0.000000D+00  0.287419D+00
      6  0.000000D+00  0.000000D+00  0.000000D+00  0.000000D+00  0.114183D+00
      7  0.000000D+00  0.000000D+00  0.000000D+00  0.000000D+00  0.232659D-01
      8  0.000000D+00  0.000000D+00  0.000000D+00  0.000000D+00  0.604030D-01
      9  0.000000D+00  0.000000D+00  0.000000D+00  0.000000D+00 -0.386474D-01
                6             7             8             9 
      6  0.287425D+00
      7  0.232831D-01  0.240505D+00
      8  0.216263D-01 -0.681738D-01  0.168633D+00
      9  0.386589D-01  0.142173D-04 -0.116580D+00  0.233412D+00
 Frcnst in PutFF: 
                1             2             3             4             5 
      1  0.361033D+00
      2  0.000000D+00  0.361033D+00
      3  0.000000D+00  0.000000D+00  0.361033D+00
      4  0.000000D+00  0.000000D+00  0.000000D+00  0.287419D+00
      5  0.000000D+00  0.000000D+00  0.000000D+00  0.114183D+00  0.287425D+00
      6  0.000000D+00  0.000000D+00  0.000000D+00  0.604030D-01  0.216263D-01
      7  0.000000D+00  0.000000D+00  0.000000D+00 -0.386474D-01  0.386589D-01
      8  0.000000D+00  0.000000D+00  0.000000D+00  0.232659D-01  0.232831D-01
      9  0.000000D+00  0.000000D+00  0.000000D+00  0.000000D+00  0.000000D+00
                6             7             8             9 
      6  0.168633D+00
      7 -0.116580D+00  0.233412D+00
      8 -0.681738D-01  0.142173D-04  0.240505D+00
      9  0.000000D+00  0.000000D+00  0.000000D+00  0.544484D-02
 Force constants in internal coordinates: 
                1             2             3             4             5 
      1  0.361033D+00
      2  0.000000D+00  0.361033D+00
      3  0.000000D+00  0.000000D+00  0.361033D+00
      4  0.000000D+00  0.000000D+00  0.000000D+00  0.544484D-02
      5  0.000000D+00  0.000000D+00  0.000000D+00  0.000000D+00  0.287419D+00
      6  0.000000D+00  0.000000D+00  0.000000D+00  0.000000D+00  0.114183D+00
      7  0.000000D+00  0.000000D+00  0.000000D+00  0.000000D+00  0.232659D-01
      8  0.000000D+00  0.000000D+00  0.000000D+00  0.000000D+00  0.604030D-01
      9  0.000000D+00  0.000000D+00  0.000000D+00  0.000000D+00 -0.386474D-01
                6             7             8             9 
      6  0.287425D+00
      7  0.232831D-01  0.240505D+00
      8  0.216263D-01 -0.681738D-01  0.168633D+00
      9  0.386589D-01  0.142173D-04 -0.116580D+00  0.233412D+00
 Final forces over variables, Energy=-4.03398060D+01:
  1.45093830D-03 1.45554454D-03 1.45032491D-03 2.58278456D-03
  2.57106611D-03-7.70837047D-03-4.17070781D-07 6.13898241D-07
 -2.68988662D-05

 GradGradGradGradGradGradGradGradGradGradGradGradGradGradGradGradGradGrad
 Berny optimization.
 Search for a local minimum.
 Step number   1 out of a maximum of   50
 All quantities printed in internal units (Hartrees-Bohrs-Radians)
 Second derivative matrix not updated -- first step.
 The second derivative matrix:
                          R1        R2        R3        A2        A3
           R1           0.36103
           R2           0.00000   0.36103
           R3           0.00000  -0.00000   0.36103
           A2           0.00000  -0.00000  -0.00000   0.28742
           A3           0.00000  -0.00000  -0.00000   0.11418   0.28742
           D3           0.00000  -0.00000   0.00000   0.06040   0.02163
           DH1          0.00000   0.00000  -0.00000  -0.03865   0.03866
           ANG1         0.00000  -0.00000  -0.00000   0.02327   0.02328
           BB           0.00000   0.00000  -0.00000   0.00000   0.00000
                          D3        DH1      ANG1       BB
           D3           0.16863
           DH1         -0.11658   0.23341
           ANG1        -0.06817   0.00001   0.24051
           BB          -0.00000   0.00000   0.00000   0.00544
 ITU=  0
     Eigenvalues ---    0.05338   0.14844   0.24330   0.34985   0.36103
     Eigenvalues ---    0.36103   0.36103   0.422421000.00000
 RFO step:  Lambda=-9.07346814D-04 EMin= 5.33830371D-02
 Linear search not attempted -- first point.
 Variable       Old X    -DE/DX   Delta X   Delta X   Delta X     New X
                                 (Linear)    (Quad)   (Total)
    R1        2.03920   0.00145   0.00000   0.00401   0.00401   2.04321
    R2        2.03920   0.00146   0.00000   0.00402   0.00402   2.04322
    R3        2.03920   0.00145   0.00000   0.00401   0.00401   2.04321
    A2        2.04403   0.00258   0.00000   0.01891   0.01891   2.06294
    A3        2.04417   0.00257   0.00000   0.01864   0.01864   2.06281
    D3        3.71950  -0.00771   0.00000  -0.10289  -0.10289   3.61662
   DH1        1.85965  -0.00000   0.00000  -0.05115  -0.05115   1.80850
   ANG1       1.74329   0.00000   0.00000  -0.03267  -0.03267   1.71062
    BB        7.18096  -0.00003   0.00000   0.00000   0.00000   7.18096
         Item               Value     Threshold  Converged?
 Maximum Force            0.007708     0.000450     NO 
 RMS     Force            0.003143     0.000300     NO 
 Maximum Displacement     0.102887     0.001800     NO 
 RMS     Displacement     0.040855     0.001200     NO 
 Predicted change in Energy=-4.604870D-04
 GradGradGradGradGradGradGradGradGradGradGradGradGradGradGradGradGradGrad

 ---------------------------------------------------------------------------------------------------
                            Z-MATRIX (ANGSTROMS AND DEGREES)
   CD    Cent   Atom    N1       Length/X        N2       Alpha/Y        N3        Beta/Z          J
 ---------------------------------------------------------------------------------------------------
      1      1  C 
      2      2  H        1   1.081221(     1)
      3      3  H        1   1.081228(     2)      2  118.198(     5)
      4      4  H        1   1.081220(     3)      2  118.190(     6)      3  207.217(     8)      0
      5      5  H        1   3.800000(     4)      2   98.011(     7)      3  103.620(     9)      0
 ---------------------------------------------------------------------------------------------------
                         Z-Matrix orientation:                         
 ---------------------------------------------------------------------
 Center     Atomic      Atomic             Coordinates (Angstroms)
 Number     Number       Type             X           Y           Z
 ---------------------------------------------------------------------
      1          6           0        0.000000    0.000000    0.000000
      2          1           0        0.000000    0.000000    1.081221
      3          1           0        0.952910    0.000000   -0.510899
      4          1           0       -0.847460    0.435851   -0.510767
      5          1           0       -0.886078   -3.657104   -0.529585
 ---------------------------------------------------------------------
                    Distance matrix (angstroms):
                    1          2          3          4          5
     1  C    0.000000
     2  H    1.081221   0.000000
     3  H    1.081228   1.855501   0.000000
     4  H    1.081220   1.855420   1.852376   0.000000
     5  H    3.800000   4.093194   4.093486   4.093180   0.000000
 Symmetry turned off by external request.
 Stoichiometry    CH4
 Framework group  C1[X(CH4)]
 Deg. of freedom     9
 Full point group                 C1      NOp   1
 Rotational constants (GHZ):    145.8174563     32.3116487     32.2957711
 Standard basis: Aug-CC-pVTZ (5D, 7F)
   138 basis functions,   180 primitive gaussians,   155 cartesian basis functions
     5 alpha electrons        5 beta electrons
       nuclear repulsion energy        10.8890972247 Hartrees.
 NAtoms=    5 NActive=    5 NUniq=    5 SFac= 1.00D+00 NAtFMM=   60 NAOKFM=F Big=F
 Integral buffers will be    131072 words long.
 Raffenetti 2 integral format.
 Two-electron integral symmetry is turned off.
 Nuclear repulsion after empirical dispersion term =       10.8887541147 Hartrees.
 One-electron integrals computed using PRISM.
 NBasis=   138 RedAO= T EigKep=  1.09D-04  NBF=   138
 NBsUse=   138 1.00D-06 EigRej= -1.00D+00 NBFU=   138
 ExpMin= 2.53D-02 ExpMax= 8.24D+03 ExpMxC= 2.81D+02 IAcc=3 IRadAn=         5 AccDes= 0.00D+00
 Harris functional with IExCor= 4639 and IRadAn=       5 diagonalized for initial guess.
 HarFok:  IExCor= 4639 AccDes= 0.00D+00 IRadAn=         5 IDoV= 1 UseB2=F ITyADJ=14
 ICtDFT=  3500011 ScaDFX=  1.000000  1.000000  1.000000  1.000000
 FoFCou: FMM=F IPFlag=           0 FMFlag=      100000 FMFlg1=           0
         NFxFlg=           0 DoJE=T BraDBF=F KetDBF=T FulRan=T
         wScrn=  0.000000 ICntrl=     500 IOpCl=  0 I1Cent=   200000004 NGrid=           0
         NMat0=    1 NMatS0=      1 NMatT0=    0 NMatD0=    1 NMtDS0=    0 NMtDT0=    0
 Symmetry not used in FoFCou.
 Mixing orbitals, IMix= 1 IMixAn=  0 NRI=1 NE=    5 Coef=  7.07106781D-01  7.07106781D-01
 Mixing orbitals, IMix= 1 IMixAn=  0 NRI=1 NE=    5 Coef= -7.07106781D-01  7.07106781D-01
 Initial guess <Sx>= 0.0000 <Sy>= 0.0000 <Sz>= 0.0000 <S**2>= 1.0000 S= 0.6180
 Keep R1 and R2 ints in memory in canonical form, NReq=186088414.
 Requested convergence on RMS density matrix=1.00D-08 within 128 cycles.
 Requested convergence on MAX density matrix=1.00D-06.
 Requested convergence on             energy=1.00D-06.
 No special actions if energy rises.
 SCF Done:  E(UwB97XD) =  -40.3405602529     A.U. after   12 cycles
            NFock= 12  Conv=0.17D-08     -V/T= 2.0070
 <Sx>= 0.0000 <Sy>= 0.0000 <Sz>= 0.0000 <S**2>= 1.0007 S= 0.6183
 <L.S>=  0.00000000000    
 Annihilation of the first spin contaminant:
 S**2 before annihilation     1.0007,   after     0.0297
 DipInt: DoE/N= T T RetVal/Mat= T F Init=T NMatP=  1 IDeriv=0 Min/MaxMlt=  1  1
 Entering OneElI...
 Multipole integrals L=1 to 1 MinM= 0 MaxM= 0.
 Requested accuracy = 0.1000D-12
 PrsmSu:  NPrtUS=   1 ThrOK=F IAlg=1 NPAlg=1 LenDen=           0.
 Prism:   IPart=     0 DynPar=F LinDyn=F Incr=          12.
 PRISM was handed   419324580 working-precision words and  1269 shell-pairs
 IPart=  0 NShTot=        1269 NBatch=          36 AvBLen=        35.3
 PrSmSu:  NxtVal=             13.
 Entering OneElI...
 Calculate overlap and kinetic energy integrals
    NBasis = 155  MinDer = 1  MaxDer = 1
 Requested accuracy = 0.1000D-12
 PrsmSu:  NPrtUS=  32 ThrOK=T IAlg=1 NPAlg=1 LenDen=           0.
 Prism:   IPart=     0 DynPar=F LinDyn=F Incr=           1.
 PRISM was handed    13082880 working-precision words and  1275 shell-pairs
 PRISM was handed    13082880 working-precision words and  1275 shell-pairs
 PRISM was handed    13082880 working-precision words and  1275 shell-pairs
 PRISM was handed    13082880 working-precision words and  1275 shell-pairs
 PRISM was handed    13082880 working-precision words and  1275 shell-pairs
 PRISM was handed    13082880 working-precision words and  1275 shell-pairs
 PRISM was handed    13082880 working-precision words and  1275 shell-pairs
 PRISM was handed    13082880 working-precision words and  1275 shell-pairs
 PRISM was handed    13082880 working-precision words and  1275 shell-pairs
 PRISM was handed    13082880 working-precision words and  1275 shell-pairs
 PRISM was handed    13082880 working-precision words and  1275 shell-pairs
 PRISM was handed    13082880 working-precision words and  1275 shell-pairs
[...]
     2  H    0.014185  -0.032285   0.002763   0.002756   0.000548
     3  H    0.014184   0.002763  -0.032306   0.002756   0.000545
     4  H    0.014238   0.002756   0.002756  -0.032320   0.000528
     5  H   -0.003595   0.000548   0.000545   0.000528  -0.999781
 Mulliken charges and spin densities:
               1          2
     1  C   -1.050278   1.037889
     2  H    0.349345  -0.012033
     3  H    0.349371  -0.012058
     4  H    0.349380  -0.012042
     5  H    0.002182  -1.001755
 Sum of Mulliken charges =  -0.00000  -0.00000
 Mulliken charges and spin densities with hydrogens summed into heavy atoms:
               1          2
     1  C   -0.000000  -0.000000
 APT charges:
               1
     1  C   -0.139706
     2  H    0.046114
     3  H    0.046468
     4  H    0.046395
     5  H    0.000730
 Sum of APT charges =   0.00000
 APT charges with hydrogens summed into heavy atoms:
               1
     1  C    0.000000
 Electronic spatial extent (au):  <R**2>=             84.6834
 Charge=              0.0000 electrons
 Dipole moment (field-independent basis, Debye):
    X=             -0.0000    Y=             -0.0024    Z=              0.0000  Tot=              0.0024
 Quadrupole moment (field-independent basis, Debye-Ang):
   XX=             -8.6095   YY=            -10.5703   ZZ=             -8.6103
   XY=              0.0025   XZ=              0.0001   YZ=              0.0016
 Traceless Quadrupole moment (field-independent basis, Debye-Ang):
   XX=              0.6539   YY=             -1.3069   ZZ=              0.6531
   XY=              0.0025   XZ=              0.0001   YZ=              0.0016
 Octapole moment (field-independent basis, Debye-Ang**2):
  XXX=             -0.0850  YYY=             16.7138  ZZZ=              0.8524  XYY=             -0.0319
  XXY=              5.3927  XXZ=             -0.9429  XZZ=             -0.0284  YZZ=              5.3938
  YYZ=             -0.0255  XYZ=             -0.0009
 Hexadecapole moment (field-independent basis, Debye-Ang**3):
 XXXX=            -16.9008 YYYY=           -140.2853 ZZZZ=            -16.9002 XXXY=              0.3236
 XXXZ=             -0.0014 YYYX=              0.3395 YYYZ=              0.2689 ZZZX=             -0.0013
 ZZZY=              0.2553 XXYY=            -26.1203 XXZZ=             -5.6339 YYZZ=            -26.1199
 XXYZ=              0.0857 YYXZ=             -0.0006 ZZXY=              0.1079
 N-N= 1.092089960619D+01 E-N=-1.147298884065D+02  KE= 4.006398825794D+01
  Exact polarizability:  20.838  -0.010  22.531   0.000  -0.018  20.831
 Approx polarizability:  17.896   0.000  17.045   0.000  -0.000  17.895
                          Isotropic Fermi Contact Couplings
        Atom                 a.u.       MegaHertz       Gauss      10(-4) cm-1
     1  C(13)              0.01724       9.69207       3.45837       3.23293
     2  H(1)              -0.01400     -31.29081     -11.16534     -10.43749
     3  H(1)              -0.01400     -31.29833     -11.16802     -10.44000
     4  H(1)              -0.01400     -31.29626     -11.16728     -10.43931
     5  H(1)              -0.29156    -651.61633    -232.51290    -217.35581
 --------------------------------------------------------
       Center         ----  Spin Dipole Couplings  ----
                      3XX-RR        3YY-RR        3ZZ-RR
 --------------------------------------------------------
     1   Atom       -0.565981      1.131999     -0.566018
     2   Atom       -0.075474     -0.002012      0.077486
     3   Atom        0.039266     -0.001994     -0.037273
     4   Atom        0.039212     -0.001938     -0.037274
     5   Atom       -0.003347      0.006695     -0.003348
 --------------------------------------------------------
                        XY            XZ            YZ
 --------------------------------------------------------
     1   Atom       -0.001755      0.000001     -0.001008
     2   Atom       -0.000049      0.000010     -0.001816
     3   Atom       -0.001601     -0.066222      0.000874
     4   Atom        0.001729      0.066222      0.001006
     5   Atom       -0.000058      0.000000     -0.000046
 --------------------------------------------------------


 ---------------------------------------------------------------------------------
              Anisotropic Spin Dipole Couplings in Principal Axis System
 ---------------------------------------------------------------------------------

       Atom             a.u.   MegaHertz   Gauss  10(-4) cm-1        Axes

              Baa    -0.5660   -75.954   -27.102   -25.336  0.0127  0.0006  0.9999
     1 C(13)  Bbb    -0.5660   -75.950   -27.101   -25.334  0.9999  0.0010 -0.0127
              Bcc     1.1320   151.904    54.203    50.670 -0.0010  1.0000 -0.0006
 
              Baa    -0.0755   -40.269   -14.369   -13.432  1.0000  0.0007 -0.0001
     2 H(1)   Bbb    -0.0021    -1.096    -0.391    -0.365 -0.0007  0.9997  0.0228
              Bcc     0.0775    41.365    14.760    13.798  0.0001 -0.0228  0.9997
 
              Baa    -0.0755   -40.277   -14.372   -13.435  0.4998  0.0006  0.8661
     3 H(1)   Bbb    -0.0020    -1.086    -0.388    -0.362  0.0196  0.9997 -0.0120
              Bcc     0.0775    41.363    14.759    13.797  0.8659 -0.0229 -0.4997
 
              Baa    -0.0755   -40.285   -14.375   -13.438 -0.4999 -0.0001  0.8661
     4 H(1)   Bbb    -0.0020    -1.061    -0.378    -0.354 -0.0218  0.9997 -0.0125
              Bcc     0.0775    41.345    14.753    13.791  0.8658  0.0252  0.4998
 
              Baa    -0.0033    -1.786    -0.637    -0.596 -0.5616  0.0006  0.8274
     5 H(1)   Bbb    -0.0033    -1.786    -0.637    -0.596  0.8274  0.0073  0.5615
              Bcc     0.0067     3.572     1.275     1.192 -0.0058  1.0000 -0.0046
 

 ---------------------------------------------------------------------------------

 Calling FoFJK, ICntrl=    100127 FMM=F ISym2X=0 I1Cent= 0 IOpClX= 1 NMat=1 NMatS=1 NMatT=0.
 Full mass-weighted force constant matrix:
 Low frequencies ---  -93.6396  -16.7766   -0.0005    0.0002    0.0010    7.9920
 Low frequencies ---   12.1588   81.7738  110.1129
 ******    1 imaginary frequencies (negative Signs) ****** 
 Diagonal vibrational polarizability:
        0.0679212       8.1886597       0.0579128
 Harmonic frequencies (cm**-1), IR intensities (KM/Mole), Raman scattering
 activities (A**4/AMU), depolarization ratios for plane and unpolarized
 incident light, reduced masses (AMU), force constants (mDyne/A),
 and normal coordinates:
                      1                      2                      3
                      A                      A                      A
 Frequencies --    -93.6362                80.4660               106.8509
 Red. masses --      1.0596                 1.0131                 1.0131
 Frc consts  --      0.0055                 0.0039                 0.0068
 IR Inten    --  0.6328E-01             0.4491E-02             0.1298E-01
  Atom  AN      X      Y      Z        X      Y      Z        X      Y      Z
     1   6     0.00  -0.07   0.00     0.02   0.00   0.00    -0.00   0.00   0.02
     2   1     0.00  -0.06   0.00     0.02   0.02   0.00    -0.00   0.77   0.02
     3   1     0.00  -0.06   0.00     0.02   0.66  -0.00     0.00  -0.41   0.02
     4   1     0.00  -0.06   0.00     0.02  -0.68   0.00     0.00  -0.37   0.02
     5   1    -0.01   0.99  -0.00    -0.33  -0.00  -0.01     0.01   0.00  -0.33
                      4                      5                      6
                      A                      A                      A
 Frequencies --    527.2213              1409.5000              1409.7544
 Red. masses --      1.2313                 1.1019                 1.1019
 Frc consts  --      0.2017                 1.2898                 1.2902
 IR Inten    --   82.34                  2.877                  2.882    
  Atom  AN      X      Y      Z        X      Y      Z        X      Y      Z
     1   6    -0.00   0.14  -0.00    -0.01   0.00   0.09    -0.09  -0.00  -0.01
     2   1     0.00  -0.58  -0.00     0.06   0.00   0.07     0.81   0.00  -0.01
     3   1     0.00  -0.57   0.00    -0.37  -0.00  -0.56     0.17   0.00   0.43
     4   1     0.00  -0.57   0.00     0.39  -0.00  -0.62     0.12   0.00  -0.34
     5   1     0.00   0.02   0.00    -0.00  -0.00   0.00    -0.00   0.00  -0.00
                      7                      8                      9
                      A                      A                      A
 Frequencies --   3122.2059              3302.9782              3303.8496
 Red. masses --      1.0078                 1.1185                 1.1186
 Frc consts  --      5.7884                 7.1897                 7.1936
 IR Inten    --  0.1412E-01              4.216                  4.176    
  Atom  AN      X      Y      Z        X      Y      Z        X      Y      Z
     1   6    -0.00   0.00  -0.00    -0.00   0.00   0.10     0.10   0.00   0.00
     2   1    -0.00   0.00   0.58    -0.00   0.00  -0.81     0.02   0.00  -0.02
     3   1     0.50  -0.00  -0.29     0.37  -0.00  -0.20    -0.60   0.00   0.35
     4   1    -0.50  -0.00  -0.29    -0.35  -0.00  -0.19    -0.61  -0.00  -0.36
     5   1    -0.00   0.00  -0.00     0.00  -0.00  -0.00    -0.00   0.00  -0.00

 -------------------
 - Thermochemistry -
 -------------------
 Temperature   298.150 Kelvin.  Pressure   1.00000 Atm.
 Atom     1 has atomic number  6 and mass  12.00000
 Atom     2 has atomic number  1 and mass   1.00783
 Atom     3 has atomic number  1 and mass   1.00783
 Atom     4 has atomic number  1 and mass   1.00783
 Atom     5 has atomic number  1 and mass   1.00783
 Molecular mass:    16.03130 amu.
 Principal axes and moments of inertia in atomic units:
                           1         2         3
     Eigenvalues --    12.55325  54.97543  54.97663
           X           -0.00587   0.99937  -0.03488
           Y            0.99997   0.00603   0.00446
           Z           -0.00466   0.03485   0.99938
 This molecule is an asymmetric top.
 Rotational symmetry number  1.
 Rotational temperatures (Kelvin)      6.89971     1.57550     1.57547
 Rotational constants (GHZ):         143.76683    32.82814    32.82742
    1 imaginary frequencies ignored.
 Zero-point vibrational energy      79329.3 (Joules/Mol)
                                   18.96016 (Kcal/Mol)
 Warning -- explicit consideration of   3 degrees of freedom as
           vibrations may cause significant error
 Vibrational temperatures:    115.77   153.73   758.55  2027.95  2028.32
          (Kelvin)           4492.15  4752.24  4753.50
 
 Zero-point correction=                           0.030215 (Hartree/Particle)
 Thermal correction to Energy=                    0.034761
 Thermal correction to Enthalpy=                  0.035705
 Thermal correction to Gibbs Free Energy=         0.007020
 Sum of electronic and zero-point Energies=            -40.311545
 Sum of electronic and thermal Energies=               -40.306999
 Sum of electronic and thermal Enthalpies=             -40.306055
 Sum of electronic and thermal Free Energies=          -40.334740
 
                     E (Thermal)             CV                S
                      KCal/Mol        Cal/Mol-Kelvin    Cal/Mol-Kelvin
 Total                   21.813             11.263             60.373
 Electronic               0.000              0.000              0.000
 Translational            0.889              2.981             34.261
 Rotational               0.889              2.981             18.279
 Vibrational             20.035              5.301              7.833
 Vibration     1          0.600              1.962              3.879
 Vibration     2          0.606              1.944              3.325
 Vibration     3          0.882              1.190              0.593
                       Q            Log10(Q)             Ln(Q)
 Total Bot       0.590430D-03         -3.228831         -7.434659
 Total V=0       0.466710D+11         10.669047         24.566389
 Vib (Bot)       0.106136D-12        -12.974138        -29.874056
 Vib (Bot)    1  0.255920D+01          0.408104          0.939695
 Vib (Bot)    2  0.191806D+01          0.282863          0.651316
 Vib (Bot)    3  0.304128D+00         -0.516944         -1.190308
 Vib (V=0)       0.838959D+01          0.923741          2.126992
 Vib (V=0)    1  0.310759D+01          0.492423          1.133846
 Vib (V=0)    2  0.248216D+01          0.394830          0.909130
 Vib (V=0)    3  0.108523D+01          0.035522          0.081792
 Electronic      0.100000D+01          0.000000          0.000000
 Translational   0.252295D+07          6.401908         14.740939
 Rotational      0.220495D+04          3.343398          7.698458
 -------------------------------------------------------------------
 Center     Atomic                   Forces (Hartrees/Bohr)
 Number     Number              X              Y              Z
 -------------------------------------------------------------------
      1        6           0.000008415   -0.000012104    0.000090634
      2        1          -0.000003513    0.000008866   -0.000023016
      3        1           0.000005041    0.000008180   -0.000034396
      4        1          -0.000009722    0.000006266   -0.000033027
      5        1          -0.000000220   -0.000011209   -0.000000196
 -------------------------------------------------------------------
 Cartesian Forces:  Max     0.000090634 RMS     0.000027902
 -----------------------------------------------------------------------------------------------
                       Internal Coordinate Forces (Hartree/Bohr or radian)
  Cent   Atom   N1       Length/X         N2         Alpha/Y        N3         Beta/Z          J
 -----------------------------------------------------------------------------------------------
      1  C 
      2  H        1  -0.000023(     1)
      3  H        1   0.000022(     2)      2   0.000056(     5)
      4  H        1   0.000025(     3)      2   0.000048(     6)      3   0.000011(     8)     0
      5  H        1   0.000011(     4)      2   0.000002(     7)      3   0.000002(     9)     0
 -----------------------------------------------------------------------------------------------
 Internal  Forces:  Max     0.000055567 RMS     0.000028481

 GradGradGradGradGradGradGradGradGradGradGradGradGradGradGradGradGradGrad
 Berny optimization.
 Search for a local minimum.
 Step number   1 out of a maximum of    2
 All quantities printed in internal units (Hartrees-Bohrs-Radians)
 Second derivative matrix not updated -- analytic derivatives used.
 The second derivative matrix:
                          R1        R2        R3        A2        A3
           R1           0.37152
           R2           0.00004   0.37181
           R3           0.00003   0.00004   0.37182
           A2           0.01585   0.00009  -0.01588   0.18897
           A3           0.01585  -0.01588   0.00008   0.09448   0.18896
           D3           0.00002   0.00003  -0.00012  -0.00012  -0.00016
           DH1          0.00000  -0.00008   0.00008  -0.00003   0.00003
           ANG1        -0.00009   0.00004   0.00004  -0.00005  -0.00005
           BB          -0.00001  -0.00000  -0.00000   0.00000   0.00000
                          D3        DH1      ANG1       BB
           D3           0.00930
           DH1         -0.00035   0.00053
           ANG1        -0.00022  -0.00000   0.00057
           BB           0.00011  -0.00000  -0.00002  -0.00031
 ITU=  0
     Eigenvalues ---    0.00051   0.00056   0.00932   0.09357   0.27561
     Eigenvalues ---    0.37179   0.37269   0.379421000.00000
 Angle between quadratic step and forces=  83.72 degrees.
 Linear search not attempted -- first point.
 Variable       Old X    -DE/DX   Delta X   Delta X   Delta X     New X
                                 (Linear)    (Quad)   (Total)
    R1        2.03773  -0.00002   0.00000  -0.00008  -0.00008   2.03765
    R2        2.03761   0.00002   0.00000   0.00006   0.00006   2.03767
    R3        2.03760   0.00002   0.00000   0.00008   0.00008   2.03767
    A2        2.09423   0.00006   0.00000   0.00023   0.00023   2.09447
    A3        2.09431   0.00005   0.00000   0.00015   0.00015   2.09447
    D3        3.13950   0.00001   0.00000   0.00147   0.00147   3.14096
   DH1        1.56555   0.00000   0.00000   0.00480   0.00480   1.57035
   ANG1       1.56665   0.00000   0.00000   0.00368   0.00368   1.57033
    BB        7.18096   0.00001   0.00000   0.00000   0.00000   7.18096
         Item               Value     Threshold  Converged?
 Maximum Force            0.000056     0.000450     YES
 RMS     Force            0.000030     0.000300     YES
 Maximum Displacement     0.004796     0.001800     NO 
 RMS     Displacement     0.002076     0.001200     NO 
 Predicted change in Energy=-2.885810D-08
 GradGradGradGradGradGradGradGradGradGradGradGradGradGradGradGradGradGrad


 Test job not archived.
 1\1\GINC-NODE-6-10\Freq\UwB97XD\Aug-CC-pVTZ\C1H4\CAVALLOTTI\03-Jun-202
 3\1\\#N Geom=AllCheck Guess=TCheck SCRF=Check Test GenChk UwB97XD/Aug-
 CC-pVTZ Freq\\geom 0\\0,1\C\H,1,R1\H,1,R2,2,A2\H,1,R3,2,A3,3,D3,0\H,1,
 BB,2,ANG1,3,DH1,0\\R1=1.07832084\R2=1.07825615\R3=1.07825058\A2=119.99
 072213\A3=119.99530768\D3=179.87991771\DH1=89.69937982\ANG1=89.7624632
 9\BB=3.8\\Version=EM64L-G09RevD.01\HF=-40.34176\S2=1.001162\S2-1=0.\S2
 A=0.03167\RMSD=1.598e-09\RMSF=2.790e-05\ZeroPoint=0.0302149\Thermal=0.
 0347608\Dipole=-0.0000166,-0.0009435,0.000003\DipoleDeriv=0.017556,0.0
 00658,-0.0000193,0.0005051,-0.4546269,-0.0000545,-0.0000157,-0.0006184
 ,0.017952,0.04363,-0.0001165,-0.0000176,-0.0001588,0.1498533,0.0015124
 ,-0.0000046,0.0028434,-0.0551417,-0.0303138,0.0014076,0.0421374,0.0013
 304,0.1508063,-0.0006787,0.0420619,-0.0009816,0.0189121,-0.0301996,-0.
 0019265,-0.0421002,-0.0016467,0.150436,-0.000726,-0.0420414,-0.0011787
 ,0.0189473,-0.0006727,-0.0000226,-0.0000002,-0.00003,0.0035312,-0.0000
 531,-0.0000002,-0.0000646,-0.0006697\Polar=20.838282,-0.0097073,22.530
 6967,0.0001294,-0.0176482,20.8311896\PG=C01 [X(C1H4)]\NImag=1\\0.61977
 588,0.00061601,0.02480074,0.00001681,0.00038932,0.61938663,-0.05487411
 ,-0.00004785,-0.00000068,0.04552985,-0.00004872,-0.00855083,0.00012401
 ,0.00004479,0.00321706,0.00000054,0.00000352,-0.35802240,-0.00000199,-
 0.00003718,0.37151928,-0.28244779,0.00000803,0.13142927,0.00467326,0.0
 0002116,-0.00385696,0.29023198,0.00009547,-0.00838380,-0.00011749,0.00
 000766,0.00269919,0.00001083,-0.00003705,0.00300392,0.13144993,-0.0000
 5965,-0.13065999,0.02358616,-0.00000115,-0.00675575,-0.14129652,0.0000
 7013,0.12708245,-0.28243175,-0.00057495,-0.13144563,0.00467509,-0.0000
 1721,0.00385856,-0.01246638,-0.00003789,-0.01373232,0.29021430,-0.0006
 6213,-0.00836355,-0.00039356,-0.00000445,0.00269777,0.00001713,0.00000
 471,0.00274381,-0.00000866,0.00063404,0.00298212,-0.13146750,-0.000333
 21,-0.13068165,-0.02358349,-0.00005061,-0.00675423,0.01373133,0.000017
 89,0.01033325,0.14131245,0.00036725,0.12710266,-0.00002223,-0.00000124
 ,0.00000023,-0.00000409,-0.00000002,-0.00000015,0.00000893,-0.00002819
 ,-0.00000725,0.00000875,0.00002783,0.00000722,0.00000864,-0.00000062,0
 .00049745,-0.00000227,-0.00000016,-0.00006318,0.00000570,0.00000315,-0
 .00006312,-0.00000067,-0.00000398,-0.00006014,-0.00000132,0.00000162,-
 0.00031101,0.00000023,0.00000002,-0.00002258,0.,-0.00003507,0.00001311
 ,-0.00000712,0.00001864,0.00000003,0.00000693,0.00001785,-0.00000003,-
 0.00000005,-0.00000144,0.00000947\\-0.00000841,0.00001210,-0.00009063,
 0.00000351,-0.00000887,0.00002302,-0.00000504,-0.00000818,0.00003440,0
 .00000972,-0.00000627,0.00003303,0.00000022,0.00001121,0.00000020\\\@


 ANYONE WHO IS NOT SHOCKED BY QUANTUM THEORY HAS
 NOT UNDERSTOOD IT. -- NIELS BOHR(1885-1962)
 Job cpu time:       0 days  0 hours  8 minutes 30.7 seconds.
 File lengths (MBytes):  RWF=     66 Int=      0 D2E=      0 Chk=      3 Scr=      1
 Normal termination of Gaussian 09 at Sat Jun  3 08:55:13 2023.
