 Entering Gaussian System, Link 0=g09
 Input=geom.com
 Output=geom.log
 Initial command:
 /software/cinetica/g09d1/g09d01/d01/build-node-6-2-59348/src/main/l1.exe "/scratch/cc/139127/Gau-198878.inp" -scrdir="/scratch/cc/139127/"
 Entering Link 1 = /software/cinetica/g09d1/g09d01/d01/build-node-6-2-59348/src/main/l1.exe PID=    198879.
  
 Copyright (c) 1988,1990,1992,1993,1995,1998,2003,2009,2013,
            Gaussian, Inc.  All Rights Reserved.
  
 This is part of the Gaussian(R) 09 program.  It is based on
 the Gaussian(R) 03 system (copyright 2003, Gaussian, Inc.),
 the Gaussian(R) 98 system (copyright 1998, Gaussian, Inc.),
 the Gaussian(R) 94 system (copyright 1995, Gaussian, Inc.),
 the Gaussian 92(TM) system (copyright 1992, Gaussian, Inc.),
 the Gaussian 90(TM) system (copyright 1990, Gaussian, Inc.),
 the Gaussian 88(TM) system (copyright 1988, Gaussian, Inc.),
 the Gaussian 86(TM) system (copyright 1986, Carnegie Mellon
 University), and the Gaussian 82(TM) system (copyright 1983,
 Carnegie Mellon University). Gaussian is a federally registered
 trademark of Gaussian, Inc.
  
 This software contains proprietary and confidential information,
 including trade secrets, belonging to Gaussian, Inc.
  
 This software is provided under written license and may be
 used, copied, transmitted, or stored only in accord with that
 written license.
  
 The following legend is applicable only to US Government
 contracts under FAR:
  
                    RESTRICTED RIGHTS LEGEND
  
 Use, reproduction and disclosure by the US Government is
 subject to restrictions as set forth in subparagraphs (a)
 and (c) of the Commercial Computer Software - Restricted
 Rights clause in FAR 52.227-19.
  
 Gaussian, Inc.
 340 Quinnipiac St., Bldg. 40, Wallingford CT 06492
  
  
 ---------------------------------------------------------------
 Warning -- This program may not be used in any manner that
 competes with the business of Gaussian, Inc. or will provide
 assistance to any competitor of Gaussian, Inc.  The licensee
 of this program is prohibited from giving any competitor of
 Gaussian, Inc. access to this program.  By using this program,
 the user acknowledges that Gaussian, Inc. is engaged in the
 business of creating and licensing software in the field of
 computational chemistry and represents and warrants to the
 licensee that it is not a competitor of Gaussian, Inc. and that
 it will not use this program in any manner prohibited above.
 ---------------------------------------------------------------
  

 Cite this work as:
 Gaussian 09, Revision D.01,
 M. J. Frisch, G. W. Trucks, H. B. Schlegel, G. E. Scuseria, 
 M. A. Robb, J. R. Cheeseman, G. Scalmani, V. Barone, B. Mennucci, 
 G. A. Petersson, H. Nakatsuji, M. Caricato, X. Li, H. P. Hratchian, 
 A. F. Izmaylov, J. Bloino, G. Zheng, J. L. Sonnenberg, M. Hada, 
 M. Ehara, K. Toyota, R. Fukuda, J. Hasegawa, M. Ishida, T. Nakajima, 
 Y. Honda, O. Kitao, H. Nakai, T. Vreven, J. A. Montgomery, Jr., 
 J. E. Peralta, F. Ogliaro, M. Bearpark, J. J. Heyd, E. Brothers, 
 K. N. Kudin, V. N. Staroverov, T. Keith, R. Kobayashi, J. Normand, 
 K. Raghavachari, A. Rendell, J. C. Burant, S. S. Iyengar, J. Tomasi, 
 M. Cossi, N. Rega, J. M. Millam, M. Klene, J. E. Knox, J. B. Cross, 
 V. Bakken, C. Adamo, J. Jaramillo, R. Gomperts, R. E. Stratmann, 
 O. Yazyev, A. J. Austin, R. Cammi, C. Pomelli, J. W. Ochterski, 
 R. L. Martin, K. Morokuma, V. G. Zakrzewski, G. A. Voth, 
 P. Salvador, J. J. Dannenberg, S. Dapprich, A. D. Daniels, 
 O. Farkas, J. B. Foresman, J. V. Ortiz, J. Cioslowski, 
 and D. J. Fox, Gaussian, Inc., Wallingford CT, 2013.
 
 ******************************************
 Gaussian 09:  EM64L-G09RevD.01 24-Apr-2013
                27-May-2023 
 ******************************************
 %mem=400MW
 %chk=tmp
 %NProcShared= 32
 Will use up to   32 processors via shared memory.
 ----------------------------------------------------------------------
 # uwb97xd/aug-cc-pvtz opt=(noeig,intern,maxcyc=50) # int=ultrafine nos
 ym freq iop(7/33=1) guess=(mix,always)
 ----------------------------------------------------------------------
 1/6=50,10=7,11=1,14=-1,18=40,26=4,38=1/1,3;
 2/12=2,15=1,17=6,18=5,29=3,40=1/2;
 3/5=16,6=1,7=10,11=2,16=1,25=1,30=1,71=1,74=-58,75=-5,116=2/1,2,3;
 4/13=-1/1;
 5/5=2,38=5/2;
 6/7=2,8=2,9=2,10=2,28=1/1;
 7/29=1,30=1,33=1/1,2,3,16;
 1/6=50,10=7,11=1,14=-1,18=40,26=4/3(2);
 2/15=1,29=3/2;
 99//99;
 2/15=1,29=3/2;
 3/5=16,6=1,7=10,11=2,16=1,25=1,30=1,71=1,74=-58,75=-5,116=2/1,2,3;
 4/13=-1/1;
 5/5=2,38=5/2;
 7/30=1,33=1/1,2,3,16;
 1/6=50,11=1,14=-1,18=40,26=4/3(-5);
 2/15=1,29=3/2;
 6/7=2,8=2,9=2,10=2,19=2,28=1/1;
 99/9=1/99;
 ------
 geom 0
 ------
 Symbolic Z-matrix:
 Charge =  0 Multiplicity = 1
 C1
 H2                   C1   R1
 H3                   C1   R2       H2   A2
 H4                   C1   R3       H2   A3       H3   D3       0
 C21                  C1   BB       H2   ANG1     H3   DH1      0
 H22                  C21  R21      C1   ANG2     H2   DH2      0
 H23                  C21  R22      H22  A22      C1   DH3      0
 H24                  C21  R23      H22  A23      H23  D23      0
       Variables:
  R1                    1.0834                   
  R2                    1.0835                   
  R3                    1.0835                   
  A2                  112.8034                   
  A3                  112.8036                   
  D3                  230.784                    
  R21                   1.0834                   
  R22                   1.0835                   
  R23                   1.0835                   
  A22                 112.8017                   
  A23                 112.8053                   
  D23                 129.2159                   
  ANG2                105.9023                   
  DH3                 115.383                    
  DH2                  60.0096                   
  DH1                 115.3954                   
  ANG1                105.8979                   
       Constants:
  BB                    4.                       
 

 GradGradGradGradGradGradGradGradGradGradGradGradGradGradGradGradGradGrad
 Berny optimization.
 Initialization pass.
                       ----------------------------
                       !    Initial Parameters    !
                       ! (Angstroms and Degrees)  !
 ----------------------                            ----------------------
 !      Name          Value   Derivative information (Atomic Units)     !
 ------------------------------------------------------------------------
 !       R1          1.0834   estimate D2E/DX2                          !
 !       R2          1.0835   estimate D2E/DX2                          !
 !       R3          1.0835   estimate D2E/DX2                          !
 !       A2        112.8034   estimate D2E/DX2                          !
 !       A3        112.8036   estimate D2E/DX2                          !
 !       D3        230.784    estimate D2E/DX2                          !
 !       R21         1.0834   estimate D2E/DX2                          !
 !       R22         1.0835   estimate D2E/DX2                          !
 !       R23         1.0835   estimate D2E/DX2                          !
 !       A22       112.8017   estimate D2E/DX2                          !
 !       A23       112.8053   estimate D2E/DX2                          !
 !       D23       129.2159   estimate D2E/DX2                          !
 !      ANG2       105.9023   estimate D2E/DX2                          !
 !       DH3       115.383    estimate D2E/DX2                          !
 !       DH2        60.0096   estimate D2E/DX2                          !
 !       DH1       115.3954   estimate D2E/DX2                          !
 !      ANG1       105.8979   estimate D2E/DX2                          !
 !       BB          4.0      Frozen                                    !
 ------------------------------------------------------------------------
 Trust Radius=3.00D-01 FncErr=1.00D-07 GrdErr=1.00D-06
 Number of steps in this run=     50 maximum allowed number of steps=    100.
 GradGradGradGradGradGradGradGradGradGradGradGradGradGradGradGradGradGrad

 ---------------------------------------------------------------------------------------------------
                            Z-MATRIX (ANGSTROMS AND DEGREES)
   CD    Cent   Atom    N1       Length/X        N2       Alpha/Y        N3        Beta/Z          J
 ---------------------------------------------------------------------------------------------------
      1      1  C 
      2      2  H        1   1.083400(     1)
      3      3  H        1   1.083500(     2)      2  112.803(     8)
      4      4  H        1   1.083500(     3)      2  112.804(     9)      3  230.784(    14)      0
      5      5  C        1   4.000000(     4)      2  105.898(    10)      3  115.395(    15)      0
      6      6  H        5   1.083400(     5)      1  105.902(    11)      2   60.010(    16)      0
      7      7  H        5   1.083500(     6)      6  112.802(    12)      1  115.383(    17)      0
      8      8  H        5   1.083500(     7)      6  112.805(    13)      7  129.216(    18)      0
 ---------------------------------------------------------------------------------------------------
                         Z-Matrix orientation:                         
 ---------------------------------------------------------------------
 Center     Atomic      Atomic             Coordinates (Angstroms)
 Number     Number       Type             X           Y           Z
 ---------------------------------------------------------------------
      1          6           0        0.000000    0.000000    0.000000
      2          1           0        0.000000    0.000000    1.083400
      3          1           0        0.998814    0.000000   -0.419932
      4          1           0       -0.631495    0.773848   -0.419936
      5          6           0       -1.649837   -3.475268   -1.095696
      6          1           0       -2.648689   -3.475035   -0.676112
      7          1           0       -1.018199   -4.249036   -0.675827
      8          1           0       -1.649464   -3.475647   -2.179196
 ---------------------------------------------------------------------
                    Distance matrix (angstroms):
                    1          2          3          4          5
     1  C    0.000000
     2  H    1.083400   0.000000
     3  H    1.083500   1.804893   0.000000
     4  H    1.083500   1.804895   1.804646   0.000000
     5  C    4.000000   4.421302   4.421481   4.421387   0.000000
     6  H    4.421374   4.710340   5.044380   4.710383   1.083400
     7  H    4.421287   4.710193   4.710428   5.044242   1.083500
     8  H    4.421510   5.044342   4.710468   4.710569   1.083500
                    6          7          8
     6  H    0.000000
     7  H    1.804875   0.000000
     8  H    1.804912   1.804645   0.000000
 Symmetry turned off by external request.
 Stoichiometry    C2H6
 Framework group  C1[X(C2H6)]
 Deg. of freedom    18
 Full point group                 C1      NOp   1
 Rotational constants (GHZ):     76.9730380      3.8524654      3.8524458
 Standard basis: Aug-CC-pVTZ (5D, 7F)
   230 basis functions,   306 primitive gaussians,   260 cartesian basis functions
     9 alpha electrons        9 beta electrons
       nuclear repulsion energy        29.4020751665 Hartrees.
 NAtoms=    8 NActive=    8 NUniq=    8 SFac= 1.00D+00 NAtFMM=   60 NAOKFM=F Big=F
 Integral buffers will be    131072 words long.
 Raffenetti 2 integral format.
 Two-electron integral symmetry is turned off.
 Nuclear repulsion after empirical dispersion term =       29.4013107247 Hartrees.
 One-electron integrals computed using PRISM.
 NBasis=   230 RedAO= T EigKep=  1.17D-04  NBF=   230
 NBsUse=   230 1.00D-06 EigRej= -1.00D+00 NBFU=   230
 ExpMin= 2.53D-02 ExpMax= 8.24D+03 ExpMxC= 2.81D+02 IAcc=3 IRadAn=         5 AccDes= 0.00D+00
 Harris functional with IExCor= 4639 and IRadAn=       5 diagonalized for initial guess.
 HarFok:  IExCor= 4639 AccDes= 0.00D+00 IRadAn=         5 IDoV= 1 UseB2=F ITyADJ=14
 ICtDFT=  3500011 ScaDFX=  1.000000  1.000000  1.000000  1.000000
 FoFCou: FMM=F IPFlag=           0 FMFlag=      100000 FMFlg1=           0
         NFxFlg=           0 DoJE=T BraDBF=F KetDBF=T FulRan=T
         wScrn=  0.000000 ICntrl=     500 IOpCl=  0 I1Cent=   200000004 NGrid=           0
         NMat0=    1 NMatS0=      1 NMatT0=    0 NMatD0=    1 NMtDS0=    0 NMtDT0=    0
 Symmetry not used in FoFCou.
 Mixing orbitals, IMix= 1 IMixAn=  0 NRI=1 NE=    9 Coef=  7.07106781D-01  7.07106781D-01
 Mixing orbitals, IMix= 1 IMixAn=  0 NRI=1 NE=    9 Coef= -7.07106781D-01  7.07106781D-01
 Initial guess <Sx>= 0.0000 <Sy>= 0.0000 <Sz>= 0.0000 <S**2>= 1.0000 S= 0.6180
 Requested convergence on RMS density matrix=1.00D-08 within 128 cycles.
 Requested convergence on MAX density matrix=1.00D-06.
 Requested convergence on             energy=1.00D-06.
 No special actions if energy rises.
 SCF Done:  E(UwB97XD) =  -79.6664416410     A.U. after   10 cycles
            NFock= 10  Conv=0.88D-08     -V/T= 2.0067
 <Sx>= 0.0000 <Sy>= 0.0000 <Sz>= 0.0000 <S**2>= 0.9890 S= 0.6131
 <L.S>=  0.00000000000    
 Annihilation of the first spin contaminant:
 S**2 before annihilation     0.9890,   after     0.0499

 **********************************************************************

            Population analysis using the SCF density.

 **********************************************************************

 Alpha  occ. eigenvalues --  -10.29744 -10.28567  -0.78678  -0.74630  -0.49577
 Alpha  occ. eigenvalues --   -0.49569  -0.48227  -0.48219  -0.33254
 Alpha virt. eigenvalues --   -0.01200   0.03325   0.04796   0.04797   0.04797
 Alpha virt. eigenvalues --    0.06454   0.06454   0.11470   0.13303   0.13304
 Alpha virt. eigenvalues --    0.13312   0.13459   0.13461   0.14543   0.14885
 Alpha virt. eigenvalues --    0.20453   0.20454   0.21157   0.21159   0.22880
 Alpha virt. eigenvalues --    0.22881   0.25690   0.28635   0.28637   0.30610
 Alpha virt. eigenvalues --    0.32955   0.32957   0.33341   0.33671   0.33671
 Alpha virt. eigenvalues --    0.34144   0.35241   0.35987   0.36230   0.37411
 Alpha virt. eigenvalues --    0.37412   0.38541   0.39869   0.40419   0.40421
 Alpha virt. eigenvalues --    0.41061   0.41062   0.42436   0.43936   0.43939
 Alpha virt. eigenvalues --    0.47798   0.47798   0.51268   0.51268   0.57394
 Alpha virt. eigenvalues --    0.58720   0.58722   0.63823   0.63827   0.67356
 Alpha virt. eigenvalues --    0.68758   0.75380   0.76538   0.76541   0.77095
 Alpha virt. eigenvalues --    0.77098   0.79065   0.79065   0.82204   0.83314
 Alpha virt. eigenvalues --    0.84213   0.87546   0.88757   0.88758   0.92036
 Alpha virt. eigenvalues --    0.93209   0.93471   0.93472   0.94366   0.94368
 Alpha virt. eigenvalues --    0.98315   0.98315   0.99917   1.00224   1.00226
 Alpha virt. eigenvalues --    1.03609   1.03947   1.04546   1.05611   1.05615
 Alpha virt. eigenvalues --    1.05960   1.05964   1.09202   1.11530   1.11533
 Alpha virt. eigenvalues --    1.12457   1.12458   1.13727   1.13733   1.14536
 Alpha virt. eigenvalues --    1.18057   1.18060   1.27143   1.27309   1.36794
 Alpha virt. eigenvalues --    1.36796   1.39264   1.39268   1.44120   1.44121
 Alpha virt. eigenvalues --    1.46149   1.46151   1.46670   1.51091   1.51532
 Alpha virt. eigenvalues --    1.51535   1.51877   1.53809   1.54101   1.54103
 Alpha virt. eigenvalues --    1.58192   1.63472   1.72891   1.72896   1.75420
 Alpha virt. eigenvalues --    1.75427   1.80612   1.83374   1.85163   1.85943
 Alpha virt. eigenvalues --    1.89998   1.90010   1.90722   1.90734   2.03163
 Alpha virt. eigenvalues --    2.03167   2.06763   2.06766   2.10344   2.13244
 Alpha virt. eigenvalues --    2.69914   2.80368   2.80369   2.82035   2.82605
 Alpha virt. eigenvalues --    2.82607   2.86476   2.93228   3.13805   3.13807
 Alpha virt. eigenvalues --    3.18698   3.18701   3.26253   3.32272   3.32275
 Alpha virt. eigenvalues --    3.34318   3.34553   3.35035   3.35035   3.35935
 Alpha virt. eigenvalues --    3.39623   3.39625   3.45250   3.45254   3.45994
 Alpha virt. eigenvalues --    3.51237   3.55280   3.55282   3.60266   3.60268
 Alpha virt. eigenvalues --    3.73418   3.73424   3.74714   3.74719   3.79465
 Alpha virt. eigenvalues --    3.80390   3.80856   3.80899   3.91501   3.91506
 Alpha virt. eigenvalues --    3.92626   3.92630   4.16949   4.18236   4.18241
 Alpha virt. eigenvalues --    4.20507   4.22476   4.22481   4.42322   4.48147
 Alpha virt. eigenvalues --    4.48150   4.49686   4.49689   4.50546   4.63042
 Alpha virt. eigenvalues --    4.63053   4.63523   4.63534   4.64879   4.65092
 Alpha virt. eigenvalues --    4.85395   4.87013   4.92618   4.92647   4.93425
 Alpha virt. eigenvalues --    4.93453   5.13753   5.13774   5.14580   5.15988
 Alpha virt. eigenvalues --    5.16010   5.16285   5.55224   5.56602   5.63610
 Alpha virt. eigenvalues --    5.65892   5.68998   5.69038   5.69744   5.69784
 Alpha virt. eigenvalues --    6.22911   6.22934   6.24620   6.24641  15.81589
 Alpha virt. eigenvalues --   15.88578
  Beta  occ. eigenvalues --  -10.29744 -10.28567  -0.78678  -0.74630  -0.49577
  Beta  occ. eigenvalues --   -0.49569  -0.48227  -0.48219  -0.33253
  Beta virt. eigenvalues --   -0.01200   0.03325   0.04797   0.04797   0.04797
  Beta virt. eigenvalues --    0.06454   0.06454   0.11470   0.13303   0.13304
  Beta virt. eigenvalues --    0.13312   0.13459   0.13461   0.14543   0.14885
  Beta virt. eigenvalues --    0.20453   0.20454   0.21157   0.21159   0.22880
  Beta virt. eigenvalues --    0.22881   0.25690   0.28635   0.28637   0.30610
  Beta virt. eigenvalues --    0.32955   0.32957   0.33341   0.33671   0.33671
  Beta virt. eigenvalues --    0.34144   0.35241   0.35987   0.36230   0.37411
  Beta virt. eigenvalues --    0.37412   0.38541   0.39869   0.40419   0.40421
  Beta virt. eigenvalues --    0.41061   0.41062   0.42436   0.43936   0.43939
  Beta virt. eigenvalues --    0.47798   0.47798   0.51268   0.51268   0.57394
  Beta virt. eigenvalues --    0.58720   0.58722   0.63823   0.63827   0.67356
  Beta virt. eigenvalues --    0.68758   0.75380   0.76538   0.76541   0.77094
  Beta virt. eigenvalues --    0.77098   0.79065   0.79065   0.82204   0.83314
  Beta virt. eigenvalues --    0.84213   0.87546   0.88757   0.88758   0.92036
  Beta virt. eigenvalues --    0.93209   0.93472   0.93472   0.94366   0.94368
  Beta virt. eigenvalues --    0.98315   0.98315   0.99917   1.00224   1.00226
  Beta virt. eigenvalues --    1.03609   1.03947   1.04546   1.05612   1.05614
  Beta virt. eigenvalues --    1.05959   1.05964   1.09202   1.11530   1.11533
  Beta virt. eigenvalues --    1.12456   1.12458   1.13727   1.13732   1.14536
  Beta virt. eigenvalues --    1.18057   1.18060   1.27143   1.27309   1.36794
  Beta virt. eigenvalues --    1.36796   1.39264   1.39268   1.44120   1.44121
  Beta virt. eigenvalues --    1.46149   1.46151   1.46670   1.51091   1.51532
  Beta virt. eigenvalues --    1.51535   1.51877   1.53809   1.54101   1.54103
  Beta virt. eigenvalues --    1.58192   1.63472   1.72891   1.72896   1.75420
  Beta virt. eigenvalues --    1.75427   1.80612   1.83374   1.85163   1.85943
  Beta virt. eigenvalues --    1.89999   1.90010   1.90723   1.90734   2.03164
  Beta virt. eigenvalues --    2.03167   2.06763   2.06766   2.10344   2.13244
  Beta virt. eigenvalues --    2.69914   2.80368   2.80368   2.82035   2.82605
  Beta virt. eigenvalues --    2.82607   2.86476   2.93228   3.13805   3.13807
  Beta virt. eigenvalues --    3.18699   3.18700   3.26253   3.32272   3.32274
  Beta virt. eigenvalues --    3.34318   3.34553   3.35034   3.35036   3.35935
  Beta virt. eigenvalues --    3.39623   3.39625   3.45251   3.45254   3.45994
  Beta virt. eigenvalues --    3.51237   3.55281   3.55282   3.60266   3.60269
  Beta virt. eigenvalues --    3.73418   3.73425   3.74714   3.74720   3.79465
  Beta virt. eigenvalues --    3.80390   3.80857   3.80899   3.91501   3.91506
  Beta virt. eigenvalues --    3.92626   3.92630   4.16949   4.18236   4.18241
  Beta virt. eigenvalues --    4.20507   4.22476   4.22481   4.42322   4.48147
  Beta virt. eigenvalues --    4.48150   4.49686   4.49689   4.50546   4.63042
  Beta virt. eigenvalues --    4.63053   4.63523   4.63534   4.64879   4.65092
  Beta virt. eigenvalues --    4.85395   4.87013   4.92619   4.92647   4.93425
  Beta virt. eigenvalues --    4.93453   5.13753   5.13774   5.14580   5.15988
  Beta virt. eigenvalues --    5.16010   5.16285   5.55224   5.56602   5.63610
  Beta virt. eigenvalues --    5.65892   5.68998   5.69038   5.69745   5.69784
  Beta virt. eigenvalues --    6.22912   6.22933   6.24620   6.24642  15.81589
  Beta virt. eigenvalues --   15.88578
          Condensed to atoms (all electrons):
               1          2          3          4          5          6
     1  C    5.800379   0.363153   0.363202   0.363158   0.004664  -0.000381
     2  H    0.363153   0.324889   0.007254   0.007261  -0.000388  -0.000026
     3  H    0.363202   0.007254   0.324900   0.007270  -0.000380   0.000032
     4  H    0.363158   0.007261   0.007270   0.324936  -0.000385  -0.000026
     5  C    0.004664  -0.000388  -0.000380  -0.000385   5.800379   0.363194
     6  H   -0.000381  -0.000026   0.000032  -0.000026   0.363194   0.324857
     7  H   -0.000385  -0.000026  -0.000026   0.000032   0.363159   0.007267
     8  H   -0.000387   0.000032  -0.000026  -0.000026   0.363160   0.007254
               7          8
     1  C   -0.000385  -0.000387
     2  H   -0.000026   0.000032
     3  H   -0.000026  -0.000026
     4  H    0.000032  -0.000026
     5  C    0.363159   0.363160
     6  H    0.007267   0.007254
     7  H    0.324938   0.007264
     8  H    0.007264   0.324931
          Atomic-Atomic Spin Densities.
               1          2          3          4          5          6
     1  C   -0.971149  -0.013942  -0.013867  -0.013869  -0.000000   0.000549
     2  H   -0.013942   0.031001  -0.005275  -0.005270  -0.000556  -0.000000
     3  H   -0.013867  -0.005275   0.030983  -0.005266  -0.000548   0.000000
     4  H   -0.013869  -0.005270  -0.005266   0.031022  -0.000552  -0.000000
     5  C   -0.000000  -0.000556  -0.000548  -0.000552   0.971148   0.013885
     6  H    0.000549  -0.000000   0.000000  -0.000000   0.013885  -0.030964
     7  H    0.000552   0.000000   0.000000  -0.000000   0.013869   0.005265
     8  H    0.000556  -0.000000   0.000000  -0.000000   0.013925   0.005275
               7          8
     1  C    0.000552   0.000556
     2  H    0.000000  -0.000000
     3  H    0.000000   0.000000
     4  H   -0.000000  -0.000000
     5  C    0.013869   0.013925
     6  H    0.005265   0.005275
     7  H   -0.031023   0.005271
     8  H    0.005271  -0.031020
 Mulliken charges and spin densities:
               1          2
     1  C   -0.893404  -1.011171
     2  H    0.297851   0.005957
     3  H    0.297773   0.006027
     4  H    0.297780   0.006064
     5  C   -0.893403   1.011171
     6  H    0.297828  -0.005989
     7  H    0.297777  -0.006065
     8  H    0.297798  -0.005993
 Sum of Mulliken charges =  -0.00000   0.00000
 Mulliken charges and spin densities with hydrogens summed into heavy atoms:
               1          2
     1  C    0.000000  -0.993124
     5  C   -0.000000   0.993124
 Electronic spatial extent (au):  <R**2>=            596.6595
 Charge=             -0.0000 electrons
 Dipole moment (field-independent basis, Debye):
    X=              0.0001    Y=             -0.0000    Z=              0.0000  Tot=              0.0001
 Quadrupole moment (field-independent basis, Debye-Ang):
   XX=            -14.5734   YY=            -13.4934   ZZ=            -14.7484
   XY=              0.6618   XZ=              0.2079   YZ=              0.4394
 Traceless Quadrupole moment (field-independent basis, Debye-Ang):
   XX=             -0.3017   YY=              0.7783   ZZ=             -0.4767
   XY=              0.6618   XZ=              0.2079   YZ=              0.4394
 Octapole moment (field-independent basis, Debye-Ang**2):
  XXX=             36.0619  YYY=             70.3407  ZZZ=             24.2425  XYY=              8.8320
  XXY=             24.2308  XXZ=              7.6416  XZZ=             11.9396  YZZ=             25.1461
  YYZ=              5.8631  XYZ=             -1.0861
 Hexadecapole moment (field-independent basis, Debye-Ang**3):
 XXXX=           -150.6344 YYYY=           -569.6213 ZZZZ=            -80.5606 XXXY=           -127.1531
 XXXZ=            -43.7498 YYYX=           -129.5992 YYYZ=            -86.0603 ZZZX=            -39.5441
 ZZZY=            -83.2884 XXYY=           -120.3740 XXZZ=            -41.2869 YYZZ=           -110.9947
 XXYZ=            -29.5429 YYXZ=            -11.1378 ZZXY=            -42.7306
 N-N= 2.940131072468D+01 E-N=-2.426152870807D+02  KE= 7.913248705458D+01
                          Isotropic Fermi Contact Couplings
        Atom                 a.u.       MegaHertz       Gauss      10(-4) cm-1
     1  C(13)             -0.17726     -99.63973     -35.55393     -33.23624
     2  H(1)               0.00715      15.98294       5.70311       5.33134
     3  H(1)               0.00715      15.97866       5.70158       5.32991
     4  H(1)               0.00716      15.99459       5.70727       5.33522
     5  C(13)              0.17727      99.64006      35.55405      33.23635
     6  H(1)              -0.00715     -15.96874      -5.69804      -5.32660
     7  H(1)              -0.00716     -15.99513      -5.70746      -5.33540
     8  H(1)              -0.00716     -15.99222      -5.70642      -5.33443
 --------------------------------------------------------
       Center         ----  Spin Dipole Couplings  ----
                      3XX-RR        3YY-RR        3ZZ-RR
 --------------------------------------------------------
     1   Atom        0.253821     -0.655383      0.401562
     2   Atom        0.056396      0.017949     -0.074345
     3   Atom       -0.054291      0.017952      0.036339
     4   Atom       -0.003083     -0.033261      0.036343
     5   Atom       -0.253817      0.655524     -0.401707
     6   Atom        0.054325     -0.017938     -0.036388
     7   Atom        0.003106      0.033253     -0.036359
     8   Atom       -0.056382     -0.017955      0.074337
 --------------------------------------------------------
                        XY            XZ            YZ
 --------------------------------------------------------
     1   Atom       -0.557115     -0.175694     -0.370105
     2   Atom       -0.023557      0.000574      0.001210
     3   Atom       -0.008000      0.047111     -0.022182
     4   Atom        0.033783     -0.046965      0.022471
     5   Atom        0.557178      0.175587      0.369859
     6   Atom        0.007969     -0.047091      0.022190
     7   Atom       -0.033787      0.046961     -0.022466
     8   Atom        0.023555     -0.000626     -0.001165
 --------------------------------------------------------


 ---------------------------------------------------------------------------------
              Anisotropic Spin Dipole Couplings in Principal Axis System
 ---------------------------------------------------------------------------------

       Atom             a.u.   MegaHertz   Gauss  10(-4) cm-1        Axes

              Baa    -1.0365  -139.095   -49.633   -46.397  0.4124  0.8688  0.2740
     1 C(13)  Bbb     0.5183    69.546    24.816    23.198  0.5797 -0.4823  0.6568
              Bcc     0.5183    69.549    24.817    23.199  0.7028 -0.1121 -0.7025
 
              Baa    -0.0744   -39.679   -14.158   -13.235 -0.0071 -0.0149  0.9999
     2 H(1)   Bbb     0.0068     3.622     1.293     1.208  0.4288  0.9033  0.0165
              Bcc     0.0676    36.056    12.866    12.027  0.9034 -0.4288 -0.0000
 
              Baa    -0.0744   -39.677   -14.158   -13.235  0.9189 -0.0151 -0.3941
     3 H(1)   Bbb     0.0068     3.627     1.294     1.210  0.1815  0.9033  0.3888
              Bcc     0.0676    36.050    12.864    12.025  0.3501 -0.4288  0.8328
 
              Baa    -0.0744   -39.675   -14.157   -13.234 -0.5926  0.7025 -0.3940
     4 H(1)   Bbb     0.0068     3.625     1.294     1.209  0.5851  0.7116  0.3888
              Bcc     0.0676    36.049    12.863    12.025 -0.5536  0.0001  0.8328
 
              Baa    -0.5183   -69.551   -24.818   -23.200  0.8703 -0.2870 -0.4002
     5 C(13)  Bbb    -0.5182   -69.544   -24.815   -23.197  0.2691 -0.4033  0.8746
              Bcc     1.0365   139.095    49.633    46.397  0.4124  0.8689  0.2738
 
              Baa    -0.0676   -36.056   -12.866   -12.027  0.3498 -0.4285  0.8331
     6 H(1)   Bbb    -0.0068    -3.625    -1.293    -1.209  0.1815  0.9034  0.3885
              Bcc     0.0744    39.681    14.159    13.236  0.9191 -0.0153 -0.3938
 
              Baa    -0.0676   -36.049   -12.863   -12.025 -0.5534  0.0001  0.8329
     7 H(1)   Bbb    -0.0068    -3.626    -1.294    -1.209  0.5852  0.7117  0.3887
              Bcc     0.0744    39.675    14.157    13.234 -0.5927  0.7025 -0.3939
 
              Baa    -0.0676   -36.050   -12.864   -12.025  0.9034 -0.4289  0.0005
     8 H(1)   Bbb    -0.0068    -3.624    -1.293    -1.209  0.4288  0.9032  0.0163
              Bcc     0.0744    39.674    14.157    13.234 -0.0074 -0.0145  0.9999
 

 ---------------------------------------------------------------------------------

 DipInt: DoE/N= T T RetVal/Mat= T F Init=T NMatP=  1 IDeriv=0 Min/MaxMlt=  1  1
 Entering OneElI...
 Multipole integrals L=1 to 1 MinM= 0 MaxM= 0.
 Requested accuracy = 0.1000D-12
 PrsmSu:  NPrtUS=   1 ThrOK=F IAlg=1 NPAlg=1 LenDen=           0.
 Prism:   IPart=     0 DynPar=F LinDyn=F Incr=          32.
 PRISM was handed   419156991 working-precision words and  3273 shell-pairs
 IPart=  0 NShTot=        3273 NBatch=          39 AvBLen=        83.9
 PrSmSu:  NxtVal=             33.
 Entering OneElI...
 Calculate overlap and kinetic energy integrals
    NBasis = 260  MinDer = 1  MaxDer = 1
 Requested accuracy = 0.1000D-12
 PrsmSu:  NPrtUS=  32 ThrOK=T IAlg=1 NPAlg=1 LenDen=           0.
 Prism:   IPart=     0 DynPar=F LinDyn=F Incr=           1.
 PRISM was handed    13044893 working-precision words and  3387 shell-pairs
 PRISM was handed    13044893 working-precision words and  3387 shell-pairs
 PRISM was handed    13044893 working-precision words and  3387 shell-pairs
 PRISM was handed    13044893 working-precision words and  3387 shell-pairs
 PRISM was handed    13044893 working-precision words and  3387 shell-pairs
 PRISM was handed    13044893 working-precision words and  3387 shell-pairs
 PRISM was handed    13044893 working-precision words and  3387 shell-pairs
 PRISM was handed    13044893 working-precision words and  3387 shell-pairs
 PRISM was handed    13044893 working-precision words and  3387 shell-pairs
 PRISM was handed    13044893 working-precision words and  3387 shell-pairs
 PRISM was handed    13044893 working-precision words and  3387 shell-pairs
 PRISM was handed    13044893 working-precision words and  3387 shell-pairs
 PRISM was handed    13044893 working-precision words and  3387 shell-pairs
 PRISM was handed    13044893 working-precision words and  3387 shell-pairs
 PRISM was handed    13044893 working-precision words and  3387 shell-pairs
 PRISM was handed    13044893 working-precision words and  3387 shell-pairs
 PRISM was handed    13044893 working-precision words and  3387 shell-pairs
 PRISM was handed    13044893 working-precision words and  3387 shell-pairs
 PRISM was handed    13044893 working-precision words and  3387 shell-pairs
 PRISM was handed    13044893 working-precision words and  3387 shell-pairs
 PRISM was handed    13044893 working-precision words and  3387 shell-pairs
 PRISM was handed    13044893 working-precision words and  3387 shell-pairs
 PRISM was handed    13044893 working-precision words and  3387 shell-pairs
 PRISM was handed    13044893 working-precision words and  3387 shell-pairs
 PRISM was handed    13044893 working-precision words and  3387 shell-pairs
 PRISM was handed    13044893 working-precision words and  3387 shell-pairs
 PRISM was handed    13044893 working-precision words and  3387 shell-pairs
 PRISM was handed    13044893 working-precision words and  3387 shell-pairs
 PRISM was handed    13044893 working-precision words and  3387 shell-pairs
 PRISM was handed    13044893 working-precision words and  3387 shell-pairs
 PRISM was handed    13044893 working-precision words and  3387 shell-pairs
 PRISM was handed    13044893 working-precision words and  3387 shell-pairs
 IPart=  0 NShTot=         130 NBatch=          40 AvBLen=         3.3
 IPart= 30 NShTot=          92 NBatch=          17 AvBLen=         5.4
 IPart= 24 NShTot=          96 NBatch=          20 AvBLen=         4.8
 IPart=  2 NShTot=         123 NBatch=          33 AvBLen=         3.7
 IPart= 27 NShTot=          96 NBatch=          20 AvBLen=         4.8
 IPart= 18 NShTot=         100 NBatch=          21 AvBLen=         4.8
 IPart=  4 NShTot=         122 NBatch=          32 AvBLen=         3.8
 IPart= 23 NShTot=          97 NBatch=          21 AvBLen=         4.6
 IPart= 26 NShTot=          96 NBatch=          20 AvBLen=         4.8
 IPart= 16 NShTot=         101 NBatch=          21 AvBLen=         4.8
 IPart= 29 NShTot=          96 NBatch=          20 AvBLen=         4.8
 IPart= 10 NShTot=         108 NBatch=          22 AvBLen=         4.9
 IPart= 14 NShTot=         104 NBatch=          21 AvBLen=         5.0
 IPart=  8 NShTot=         111 NBatch=          23 AvBLen=         4.8
 IPart=  6 NShTot=         116 NBatch=          26 AvBLen=         4.5
 IPart= 19 NShTot=         100 NBatch=          21 AvBLen=         4.8
 IPart= 12 NShTot=         105 NBatch=          21 AvBLen=         5.0
 IPart= 21 NShTot=          98 NBatch=          21 AvBLen=         4.7
 IPart= 28 NShTot=          96 NBatch=          20 AvBLen=         4.8
 IPart=  7 NShTot=         116 NBatch=          26 AvBLen=         4.5
 IPart= 31 NShTot=          92 NBatch=          17 AvBLen=         5.4
 IPart= 25 NShTot=          96 NBatch=          20 AvBLen=         4.8
 IPart=  1 NShTot=         129 NBatch=          39 AvBLen=         3.3
 IPart= 22 NShTot=          97 NBatch=          21 AvBLen=         4.6
 IPart= 20 NShTot=          99 NBatch=          21 AvBLen=         4.7
 IPart= 15 NShTot=         103 NBatch=          21 AvBLen=         4.9
 IPart= 17 NShTot=         101 NBatch=          21 AvBLen=         4.8
 IPart=  5 NShTot=         122 NBatch=          32 AvBLen=         3.8
 IPart= 13 NShTot=         105 NBatch=          21 AvBLen=         5.0
 IPart= 11 NShTot=         106 NBatch=          22 AvBLen=         4.8
 IPart=  9 NShTot=         111 NBatch=          23 AvBLen=         4.8
 IPart=  3 NShTot=         123 NBatch=          33 AvBLen=         3.7
 PrSmSu:  NxtVal=             33.
 Entering OneElI...
 Calculate potential energy integrals
    NBasis = 260  MinDer = 1  MaxDer = 1
 Requested accuracy = 0.1000D-12
 PrsmSu:  NPrtUS=  32 ThrOK=T IAlg=1 NPAlg=1 LenDen=           0.
 Prism:   IPart=     0 DynPar=F LinDyn=F Incr=           8.
 PRISM was handed    13050994 working-precision words and  3202 shell-pairs
 PRISM was handed    13050994 working-precision words and  3202 shell-pairs
 PRISM was handed    13050994 working-precision words and  3202 shell-pairs
 PRISM was handed    13050994 working-precision words and  3202 shell-pairs
 PRISM was handed    13050994 working-precision words and  3202 shell-pairs
 PRISM was handed    13050994 working-precision words and  3202 shell-pairs
 PRISM was handed    13050994 working-precision words and  3202 shell-pairs
 PRISM was handed    13050994 working-precision words and  3202 shell-pairs
 PRISM was handed    13050994 working-precision words and  3202 shell-pairs
 PRISM was handed    13050994 working-precision words and  3202 shell-pairs
 PRISM was handed    13050994 working-precision words and  3202 shell-pairs
 PRISM was handed    13050994 working-precision words and  3202 shell-pairs
 PRISM was handed    13050994 working-precision words and  3202 shell-pairs
 PRISM was handed    13050994 working-precision words and  3202 shell-pairs
 PRISM was handed    13050994 working-precision words and  3202 shell-pairs
 PRISM was handed    13050994 working-precision words and  3202 shell-pairs
 PRISM was handed    13050994 working-precision words and  3202 shell-pairs
 PRISM was handed    13050994 working-precision words and  3202 shell-pairs
 PRISM was handed    13050994 working-precision words and  3202 shell-pairs
 PRISM was handed    13050994 working-precision words and  3202 shell-pairs
 PRISM was handed    13050994 working-precision words and  3202 shell-pairs
 PRISM was handed    13050994 working-precision words and  3202 shell-pairs
 PRISM was handed    13050994 working-precision words and  3202 shell-pairs
 PRISM was handed    13050994 working-precision words and  3202 shell-pairs
 PRISM was handed    13050994 working-precision words and  3202 shell-pairs
 PRISM was handed    13050994 working-precision words and  3202 shell-pairs
 PRISM was handed    13050994 working-precision words and  3202 shell-pairs
 PRISM was handed    13050994 working-precision words and  3202 shell-pairs
 PRISM was handed    13050994 working-precision words and  3202 shell-pairs
 PRISM was handed    13050994 working-precision words and  3202 shell-pairs
 PRISM was handed    13050994 working-precision words and  3202 shell-pairs
 PRISM was handed    13050994 working-precision words and  3202 shell-pairs
 IPart= 20 NShTot=         752 NBatch=          94 AvBLen=         8.0
 IPart= 28 NShTot=         688 NBatch=          86 AvBLen=         8.0
 IPart= 13 NShTot=         800 NBatch=         100 AvBLen=         8.0
 IPart= 17 NShTot=         784 NBatch=          98 AvBLen=         8.0
 IPart=  9 NShTot=         824 NBatch=         103 AvBLen=         8.0
 IPart= 30 NShTot=         680 NBatch=          85 AvBLen=         8.0
 IPart= 11 NShTot=         808 NBatch=         101 AvBLen=         8.0
 IPart= 31 NShTot=         680 NBatch=          85 AvBLen=         8.0
 IPart= 24 NShTot=         736 NBatch=          92 AvBLen=         8.0
 IPart= 15 NShTot=         800 NBatch=         100 AvBLen=         8.0
 IPart= 22 NShTot=         752 NBatch=          94 AvBLen=         8.0
 IPart= 26 NShTot=         736 NBatch=          92 AvBLen=         8.0
 IPart=  5 NShTot=         912 NBatch=         114 AvBLen=         8.0
 IPart=  1 NShTot=        1008 NBatch=         126 AvBLen=         8.0
 IPart=  7 NShTot=         832 NBatch=         104 AvBLen=         8.0
 IPart=  0 NShTot=        1008 NBatch=         126 AvBLen=         8.0
 IPart= 29 NShTot=         680 NBatch=          85 AvBLen=         8.0
 IPart= 14 NShTot=         800 NBatch=         100 AvBLen=         8.0
 IPart=  3 NShTot=         936 NBatch=         117 AvBLen=         8.0
 IPart= 18 NShTot=         768 NBatch=          96 AvBLen=         8.0
 IPart=  4 NShTot=         912 NBatch=         114 AvBLen=         8.0
 IPart= 16 NShTot=         784 NBatch=          98 AvBLen=         8.0
 IPart= 21 NShTot=         752 NBatch=          94 AvBLen=         8.0
 IPart= 19 NShTot=         760 NBatch=          95 AvBLen=         8.0
 IPart= 25 NShTot=         736 NBatch=          92 AvBLen=         8.0
 IPart=  2 NShTot=         936 NBatch=         117 AvBLen=         8.0
 IPart=  8 NShTot=         824 NBatch=         103 AvBLen=         8.0
 IPart=  6 NShTot=         840 NBatch=         105 AvBLen=         8.0
 IPart= 23 NShTot=         752 NBatch=          94 AvBLen=         8.0
 IPart= 12 NShTot=         800 NBatch=         100 AvBLen=         8.0
 IPart= 10 NShTot=         808 NBatch=         101 AvBLen=         8.0
 IPart= 27 NShTot=         728 NBatch=          91 AvBLen=         8.0
 PrSmSu:  NxtVal=            257.
 l701 out
 I=    0 X=   2.474846102096D-05 Y=  -1.290184432090D-05 Z=   3.389430661471D-06
 I=    1 X=  -5.447777558700D-01 Y=  -1.147280730961D+00 Z=  -3.607352819823D-01
 I=    2 X=   5.963503216823D-02 Y=   1.254976958598D-01 Z=   2.681212983823D+00
 I=    3 X=   2.494849864744D+00 Y=   1.254697912801D-01 Z=  -9.843442102435D-01
 I=    4 X=  -1.480046030317D+00 Y=   2.012036483661D+00 Z=  -9.843708027879D-01
 I=    5 X=   5.436828707141D-01 Y=   1.147460253292D+00 Z=   3.618281870944D-01
 I=    6 X=  -2.495281617916D+00 Y=  -1.248163762687D-01 Z=   9.835381767963D-01
 I=    7 X=   1.480538776335D+00 Y=  -2.011861064476D+00 Z=   9.839840341858D-01
 I=    8 X=  -5.860113985889D-02 Y=  -1.265060523871D-01 Z=  -2.681113086886D+00
 ICntrl=      2127.
 Calling FoFJK, ICntrl=      2127 FMM=F ISym2X=0 I1Cent= 0 IOpClX= 1 NMat=1 NMatS=1 NMatT=0.
 FoFJK:  IHMeth= 1 ICntrl=    2127 DoSepK=T KAlg= 0 I1Cent=   0 FoldK=F
 IRaf=         1 NMat=   1 IRICut=       1 DoRegI=T DoRafI=F ISym2E= 0.
 FoFCou: FMM=F IPFlag=           0 FMFlag=      100000 FMFlg1=         800
         NFxFlg=           0 DoJE=F BraDBF=F KetDBF=F FulRan=T
         wScrn=  0.000000 ICntrl=    2527 IOpCl=  0 I1Cent=           0 NGrid=           0
         NMat0=    1 NMatS0=      1 NMatT0=    0 NMatD0=    1 NMtDS0=    0 NMtDT0=    0
 Symmetry not used in FoFCou.
 FoFCou:  KetSym=F NOpSet=  1 NOpAb=1 NOp=  1.
 FoFCou:  CnvScl= 1.00D+00 Thresh= 1.00D-10 IAcrcy=      10.
 PrismS was handed   419086930 working-precision words and  3247 shell-pairs
 FoFCou: LinMIO=F DoNuc=F BraDBF=F KetDBF=F HaveP=T PDBF=F HaveZ=T HaveW=F
         NIJTC =      10 NIJTAt=       0 NIJTCD=       0 NIJTT =      10
         IJTBeg=       1 IJTEnd=      10 KLTBeg=       1 KLTEnd=      10
         IPTBeg=       1 IPTEnd=      10 IPTBCv=       1 IPTECv=      10
         IZTBeg=       1 IZTEnd=      10 IZTBCv=       1 IZTECv=      10
         IWTBeg=      11 IWTEnd=      10 IWTBCv=      11 IWTECv=      10
         INTBeg=       1 INTEnd=       0 IFTBCv=       1 IFTECv=      10
 NCel replicated for PrismC:     1
 CoulSu:  IncDef=  1024 NBBP=        5273128 NTPThr=   100 NPartT=   32 Incr=        1024 LDynOK=F.
 CoulSu:  NPrtUS=  32 ThrOK=T IAlg=1 NPAlg=1 LenDen=           0 LWGrdD=           0 DoCopy=F.
 Enter PrismC: JobTyp=21 DoJE=F Cont=F.
 PrismC:  IPart=     0 DynPar=T LinDyn=F Incr=        1024 UseFst=F UseS4=T IGathr=2.
 PrismC was handed    13047340 working-precision words and  3247 shell-pairs
 Enter PrismC: JobTyp=21 DoJE=F Cont=F.
 Enter PrismC: JobTyp=21 DoJE=F Cont=F.
 Enter PrismC: JobTyp=21 DoJE=F Cont=F.
 Enter PrismC: JobTyp=21 DoJE=F Cont=F.
 PrismC was handed    13047340 working-precision words and  3247 shell-pairs
 Enter PrismC: JobTyp=21 DoJE=F Cont=F.
 Enter PrismC: JobTyp=21 DoJE=F Cont=F.
 Enter PrismC: JobTyp=21 DoJE=F Cont=F.
 Enter PrismC: JobTyp=21 DoJE=F Cont=F.
 Enter PrismC: JobTyp=21 DoJE=F Cont=F.
 PrismC was handed    13047340 working-precision words and  3247 shell-pairs
 Enter PrismC: JobTyp=21 DoJE=F Cont=F.
 PrismC was handed    13047340 working-precision words and  3247 shell-pairs
 Enter PrismC: JobTyp=21 DoJE=F Cont=F.
 PrismC was handed    13047340 working-precision words and  3247 shell-pairs
 Enter PrismC: JobTyp=21 DoJE=F Cont=F.
 PrismC was handed    13047340 working-precision words and  3247 shell-pairs
 Enter PrismC: JobTyp=21 DoJE=F Cont=F.
 PrismC was handed    13047340 working-precision words and  3247 shell-pairs
 Enter PrismC: JobTyp=21 DoJE=F Cont=F.
 PrismC was handed    13047340 working-precision words and  3247 shell-pairs
 Enter PrismC: JobTyp=21 DoJE=F Cont=F.
 Enter PrismC: JobTyp=21 DoJE=F Cont=F.
 Enter PrismC: JobTyp=21 DoJE=F Cont=F.
 Enter PrismC: JobTyp=21 DoJE=F Cont=F.
 Enter PrismC: JobTyp=21 DoJE=F Cont=F.
 PrismC was handed    13047340 working-precision words and  3247 shell-pairs
 Enter PrismC: JobTyp=21 DoJE=F Cont=F.
 Enter PrismC: JobTyp=21 DoJE=F Cont=F.
 PrismC was handed    13047340 working-precision words and  3247 shell-pairs
 Enter PrismC: JobTyp=21 DoJE=F Cont=F.
 PrismC was handed    13047340 working-precision words and  3247 shell-pairs
 Enter PrismC: JobTyp=21 DoJE=F Cont=F.
 PrismC was handed    13047340 working-precision words and  3247 shell-pairs
 Enter PrismC: JobTyp=21 DoJE=F Cont=F.
 PrismC was handed    13047340 working-precision words and  3247 shell-pairs
 Enter PrismC: JobTyp=21 DoJE=F Cont=F.
 PrismC was handed    13047340 working-precision words and  3247 shell-pairs
 Enter PrismC: JobTyp=21 DoJE=F Cont=F.
 Enter PrismC: JobTyp=21 DoJE=F Cont=F.
 PrismC was handed    13047340 working-precision words and  3247 shell-pairs
 Enter PrismC: JobTyp=21 DoJE=F Cont=F.
 PrismC was handed    13047340 working-precision words and  3247 shell-pairs
 Enter PrismC: JobTyp=21 DoJE=F Cont=F.
 PrismC was handed    13047340 working-precision words and  3247 shell-pairs
 Enter PrismC: JobTyp=21 DoJE=F Cont=F.
 PrismC was handed    13047340 working-precision words and  3247 shell-pairs
 Enter PrismC: JobTyp=21 DoJE=F Cont=F.
 PrismC was handed    13047340 working-precision words and  3247 shell-pairs
 PrismC was handed    13047340 working-precision words and  3247 shell-pairs
 PrismC was handed    13047340 working-precision words and  3247 shell-pairs
 PrismC was handed    13047340 working-precision words and  3247 shell-pairs
 PrismC was handed    13047340 working-precision words and  3247 shell-pairs
 PrismC was handed    13047340 working-precision words and  3247 shell-pairs
 PrismC was handed    13047340 working-precision words and  3247 shell-pairs
 PrismC was handed    13047340 working-precision words and  3247 shell-pairs
 PrismC was handed    13047340 working-precision words and  3247 shell-pairs
 PrismC was handed    13047340 working-precision words and  3247 shell-pairs
 PrismC was handed    13047340 working-precision words and  3247 shell-pairs
 PrismC was handed    13047340 working-precision words and  3247 shell-pairs
 PrismC was handed    13047340 working-precision words and  3247 shell-pairs
 PrismC was handed    13047340 working-precision words and  3247 shell-pairs
 IPart=  5 NShTot=      127933 NShNF=      127933 NShFF=           0 NBatch=        1101 AvBLen=       116.2
 IPart=  6 NShTot=      125944 NShNF=      125944 NShFF=           0 NBatch=        1081 AvBLen=       116.5
 IPart= 11 NShTot=      138285 NShNF=      138285 NShFF=           0 NBatch=        1116 AvBLen=       123.9
 IPart= 19 NShTot=      136103 NShNF=      136103 NShFF=           0 NBatch=        1066 AvBLen=       127.7
 IPart=  9 NShTot=      129108 NShNF=      129108 NShFF=           0 NBatch=        1111 AvBLen=       116.2
 IPart=  4 NShTot=      119019 NShNF=      119019 NShFF=           0 NBatch=        1025 AvBLen=       116.1
 IPart= 15 NShTot=      140528 NShNF=      140528 NShFF=           0 NBatch=        1083 AvBLen=       129.8
 IPart=  7 NShTot=      127338 NShNF=      127338 NShFF=           0 NBatch=        1046 AvBLen=       121.7
 IPart= 20 NShTot=      123333 NShNF=      123333 NShFF=           0 NBatch=         939 AvBLen=       131.3
 IPart= 18 NShTot=      127587 NShNF=      127587 NShFF=           0 NBatch=        1075 AvBLen=       118.7
 IPart= 22 NShTot=      132478 NShNF=      132478 NShFF=           0 NBatch=        1042 AvBLen=       127.1
 IPart= 23 NShTot=      124812 NShNF=      124812 NShFF=           0 NBatch=        1058 AvBLen=       118.0
 IPart= 28 NShTot=      121083 NShNF=      121083 NShFF=           0 NBatch=        1015 AvBLen=       119.3
 IPart=  1 NShTot=      137104 NShNF=      137104 NShFF=           0 NBatch=        1089 AvBLen=       125.9
 IPart= 27 NShTot=      133712 NShNF=      133712 NShFF=           0 NBatch=        1056 AvBLen=       126.6
 IPart= 31 NShTot=      132337 NShNF=      132337 NShFF=           0 NBatch=        1081 AvBLen=       122.4
 IPart= 10 NShTot=      125974 NShNF=      125974 NShFF=           0 NBatch=        1013 AvBLen=       124.4
 IPart=  2 NShTot=      118088 NShNF=      118088 NShFF=           0 NBatch=        1050 AvBLen=       112.5
 IPart= 12 NShTot=      122703 NShNF=      122703 NShFF=           0 NBatch=        1016 AvBLen=       120.8
 IPart= 29 NShTot=      131301 NShNF=      131301 NShFF=           0 NBatch=         917 AvBLen=       143.2
 IPart= 14 NShTot=      119082 NShNF=      119082 NShFF=           0 NBatch=         913 AvBLen=       130.4
 IPart=  8 NShTot=      132845 NShNF=      132845 NShFF=           0 NBatch=        1085 AvBLen=       122.4
 IPart=  3 NShTot=      127109 NShNF=      127109 NShFF=           0 NBatch=        1093 AvBLen=       116.3
 IPart= 21 NShTot=      126202 NShNF=      126202 NShFF=           0 NBatch=        1043 AvBLen=       121.0
 IPart= 16 NShTot=      124541 NShNF=      124541 NShFF=           0 NBatch=        1042 AvBLen=       119.5
 IPart= 17 NShTot=      133065 NShNF=      133065 NShFF=           0 NBatch=        1072 AvBLen=       124.1
 IPart= 30 NShTot=      120942 NShNF=      120942 NShFF=           0 NBatch=        1128 AvBLen=       107.2
 IPart=  0 NShTot=      123131 NShNF=      123131 NShFF=           0 NBatch=         804 AvBLen=       153.1
 IPart= 24 NShTot=      144780 NShNF=      144780 NShFF=           0 NBatch=        1162 AvBLen=       124.6
 IPart= 13 NShTot=      142399 NShNF=      142399 NShFF=           0 NBatch=        1102 AvBLen=       129.2
 IPart= 25 NShTot=      128057 NShNF=      128057 NShFF=           0 NBatch=        1054 AvBLen=       121.5
 IPart= 26 NShTot=      126056 NShNF=      126056 NShFF=           0 NBatch=        1113 AvBLen=       113.3
 CoulSu:  NxtVal=        5803009.
 FoFCou: FMM=F IPFlag=           0 FMFlag=      100000 FMFlg1=         800
         NFxFlg=           0 DoJE=F BraDBF=F KetDBF=F FulRan=T
         wScrn=  0.000000 ICntrl=    2127 IOpCl=  1 I1Cent=           0 NGrid=           0
         NMat0=    1 NMatS0=      0 NMatT0=    1 NMatD0=    1 NMtDS0=    0 NMtDT0=    0
         CW=    0.222036    0.777964
         WU=    0.000000   12.500000
 Symmetry not used in FoFCou.
 FoFCou:  KetSym=F NOpSet=  1 NOpAb=1 NOp=  1.
 FoFCou:  CnvScl= 1.00D+00 Thresh= 1.00D-10 IAcrcy=      10.
 PrismS was handed   419083583 working-precision words and  3247 shell-pairs
 FoFCou: LinMIO=F DoNuc=F BraDBF=F KetDBF=F HaveP=T PDBF=F HaveZ=T HaveW=F
         NIJTC =      10 NIJTAt=       0 NIJTCD=       0 NIJTT =      10
         IJTBeg=       1 IJTEnd=      10 KLTBeg=       1 KLTEnd=      10
         IPTBeg=       1 IPTEnd=      10 IPTBCv=       1 IPTECv=      10
         IZTBeg=       1 IZTEnd=      10 IZTBCv=       1 IZTECv=      10
         IWTBeg=      11 IWTEnd=      10 IWTBCv=      11 IWTECv=      10
         INTBeg=       1 INTEnd=       0 IFTBCv=       1 IFTECv=      10
 NCel replicated for PrismC:     1
 CoulSu:  IncDef=  1024 NBBP=        5273128 NTPThr=   100 NPartT=   32 Incr=        1024 LDynOK=F.
 CoulSu:  NPrtUS=  32 ThrOK=T IAlg=1 NPAlg=1 LenDen=           0 LWGrdD=           0 DoCopy=F.
 Enter PrismC: JobTyp=21 DoJE=F Cont=F.
 Linear combination for Coulomb/exchange, wScrn=  0.000000
 CW=    0.222036    0.777964
 WU=    0.000000   12.500000
 PrismC:  IPart=     0 DynPar=T LinDyn=F Incr=        1024 UseFst=F UseS4=T IGathr=2.
 PrismC was handed    13047235 working-precision words and  3247 shell-pairs
 Enter PrismC: JobTyp=21 DoJE=F Cont=F.
 Enter PrismC: JobTyp=21 DoJE=F Cont=F.
 Enter PrismC: JobTyp=21 DoJE=F Cont=F.
 Linear combination for Coulomb/exchange, wScrn=  0.000000
 CW=    0.222036    0.777964
 WU=    0.000000   12.500000
 Enter PrismC: JobTyp=21 DoJE=F Cont=F.
 Linear combination for Coulomb/exchange, wScrn=  0.000000
 CW=    0.222036    0.777964
 WU=    0.000000   12.500000
 Enter PrismC: JobTyp=21 DoJE=F Cont=F.
 Linear combination for Coulomb/exchange, wScrn=  0.000000
 CW=    0.222036    0.777964
 WU=    0.000000   12.500000
 Enter PrismC: JobTyp=21 DoJE=F Cont=F.
 Linear combination for Coulomb/exchange, wScrn=  0.000000
 CW=    0.222036    0.777964
 WU=    0.000000   12.500000
 Enter PrismC: JobTyp=21 DoJE=F Cont=F.
 Linear combination for Coulomb/exchange, wScrn=  0.000000
 CW=    0.222036    0.777964
 WU=    0.000000   12.500000
 PrismC was handed    13047235 working-precision words and  3247 shell-pairs
 Enter PrismC: JobTyp=21 DoJE=F Cont=F.
 Linear combination for Coulomb/exchange, wScrn=  0.000000
 CW=    0.222036    0.777964
 WU=    0.000000   12.500000
 Enter PrismC: JobTyp=21 DoJE=F Cont=F.
 Linear combination for Coulomb/exchange, wScrn=  0.000000
 CW=    0.222036    0.777964
 WU=    0.000000   12.500000
 PrismC was handed    13047235 working-precision words and  3247 shell-pairs
 Enter PrismC: JobTyp=21 DoJE=F Cont=F.
 Linear combination for Coulomb/exchange, wScrn=  0.000000
 CW=    0.222036    0.777964
 WU=    0.000000   12.500000
 PrismC was handed    13047235 working-precision words and  3247 shell-pairs
 Enter PrismC: JobTyp=21 DoJE=F Cont=F.
 Enter PrismC: JobTyp=21 DoJE=F Cont=F.
 Linear combination for Coulomb/exchange, wScrn=  0.000000
 CW=    0.222036    0.777964
 WU=    0.000000   12.500000
 Linear combination for Coulomb/exchange, wScrn=  0.000000
 CW=    0.222036    0.777964
 WU=    0.000000   12.500000
 Enter PrismC: JobTyp=21 DoJE=F Cont=F.
 Linear combination for Coulomb/exchange, wScrn=  0.000000
 CW=    0.222036    0.777964
 WU=    0.000000   12.500000
 Enter PrismC: JobTyp=21 DoJE=F Cont=F.
 Linear combination for Coulomb/exchange, wScrn=  0.000000
 CW=    0.222036    0.777964
 WU=    0.000000   12.500000
 Enter PrismC: JobTyp=21 DoJE=F Cont=F.
 Linear combination for Coulomb/exchange, wScrn=  0.000000
 CW=    0.222036    0.777964
 WU=    0.000000   12.500000
 Enter PrismC: JobTyp=21 DoJE=F Cont=F.
 Linear combination for Coulomb/exchange, wScrn=  0.000000
 CW=    0.222036    0.777964
 WU=    0.000000   12.500000
 Enter PrismC: JobTyp=21 DoJE=F Cont=F.
 Linear combination for Coulomb/exchange, wScrn=  0.000000
 CW=    0.222036    0.777964
 WU=    0.000000   12.500000
 Linear combination for Coulomb/exchange, wScrn=  0.000000
 CW=    0.222036    0.777964
 WU=    0.000000   12.500000
 Enter PrismC: JobTyp=21 DoJE=F Cont=F.
 Linear combination for Coulomb/exchange, wScrn=  0.000000
 CW=    0.222036    0.777964
 WU=    0.000000   12.500000
 PrismC was handed    13047235 working-precision words and  3247 shell-pairs
 Enter PrismC: JobTyp=21 DoJE=F Cont=F.
 Linear combination for Coulomb/exchange, wScrn=  0.000000
 CW=    0.222036    0.777964
 WU=    0.000000   12.500000
 Enter PrismC: JobTyp=21 DoJE=F Cont=F.
 Linear combination for Coulomb/exchange, wScrn=  0.000000
 CW=    0.222036    0.777964
 WU=    0.000000   12.500000
 Enter PrismC: JobTyp=21 DoJE=F Cont=F.
 Linear combination for Coulomb/exchange, wScrn=  0.000000
 CW=    0.222036    0.777964
 WU=    0.000000   12.500000
 PrismC was handed    13047235 working-precision words and  3247 shell-pairs
 Enter PrismC: JobTyp=21 DoJE=F Cont=F.
 Linear combination for Coulomb/exchange, wScrn=  0.000000
 CW=    0.222036    0.777964
 WU=    0.000000   12.500000
 Enter PrismC: JobTyp=21 DoJE=F Cont=F.
 Linear combination for Coulomb/exchange, wScrn=  0.000000
 CW=    0.222036    0.777964
 WU=    0.000000   12.500000
 PrismC was handed    13047235 working-precision words and  3247 shell-pairs
 PrismC was handed    13047235 working-precision words and  3247 shell-pairs
 PrismC was handed    13047235 working-precision words and  3247 shell-pairs
 Enter PrismC: JobTyp=21 DoJE=F Cont=F.
 Linear combination for Coulomb/exchange, wScrn=  0.000000
 CW=    0.222036    0.777964
 WU=    0.000000   12.500000
 PrismC was handed    13047235 working-precision words and  3247 shell-pairs
 PrismC was handed    13047235 working-precision words and  3247 shell-pairs
 PrismC was handed    13047235 working-precision words and  3247 shell-pairs
 Enter PrismC: JobTyp=21 DoJE=F Cont=F.
 Linear combination for Coulomb/exchange, wScrn=  0.000000
 CW=    0.222036    0.777964
 WU=    0.000000   12.500000
 Enter PrismC: JobTyp=21 DoJE=F Cont=F.
 Linear combination for Coulomb/exchange, wScrn=  0.000000
 CW=    0.222036    0.777964
 WU=    0.000000   12.500000
 Linear combination for Coulomb/exchange, wScrn=  0.000000
 CW=    0.222036    0.777964
 WU=    0.000000   12.500000
 PrismC was handed    13047235 working-precision words and  3247 shell-pairs
 PrismC was handed    13047235 working-precision words and  3247 shell-pairs
 PrismC was handed    13047235 working-precision words and  3247 shell-pairs
 Enter PrismC: JobTyp=21 DoJE=F Cont=F.
 Linear combination for Coulomb/exchange, wScrn=  0.000000
 CW=    0.222036    0.777964
 WU=    0.000000   12.500000
 Enter PrismC: JobTyp=21 DoJE=F Cont=F.
 Linear combination for Coulomb/exchange, wScrn=  0.000000
 CW=    0.222036    0.777964
 WU=    0.000000   12.500000
 PrismC was handed    13047235 working-precision words and  3247 shell-pairs
 PrismC was handed    13047235 working-precision words and  3247 shell-pairs
 PrismC was handed    13047235 working-precision words and  3247 shell-pairs
 PrismC was handed    13047235 working-precision words and  3247 shell-pairs
 Enter PrismC: JobTyp=21 DoJE=F Cont=F.
 PrismC was handed    13047235 working-precision words and  3247 shell-pairs
 PrismC was handed    13047235 working-precision words and  3247 shell-pairs
 Enter PrismC: JobTyp=21 DoJE=F Cont=F.
 Linear combination for Coulomb/exchange, wScrn=  0.000000
 CW=    0.222036    0.777964
 WU=    0.000000   12.500000
 PrismC was handed    13047235 working-precision words and  3247 shell-pairs
 PrismC was handed    13047235 working-precision words and  3247 shell-pairs
 PrismC was handed    13047235 working-precision words and  3247 shell-pairs
 Enter PrismC: JobTyp=21 DoJE=F Cont=F.
 Linear combination for Coulomb/exchange, wScrn=  0.000000
 CW=    0.222036    0.777964
 WU=    0.000000   12.500000
 PrismC was handed    13047235 working-precision words and  3247 shell-pairs
 PrismC was handed    13047235 working-precision words and  3247 shell-pairs
 PrismC was handed    13047235 working-precision words and  3247 shell-pairs
 PrismC was handed    13047235 working-precision words and  3247 shell-pairs
 PrismC was handed    13047235 working-precision words and  3247 shell-pairs
 PrismC was handed    13047235 working-precision words and  3247 shell-pairs
 Linear combination for Coulomb/exchange, wScrn=  0.000000
 CW=    0.222036    0.777964
 WU=    0.000000   12.500000
 PrismC was handed    13047235 working-precision words and  3247 shell-pairs
 PrismC was handed    13047235 working-precision words and  3247 shell-pairs
 IPart= 13 NShTot=      133242 NShNF=      133242 NShFF=           0 NBatch=        1420 AvBLen=        93.8
 IPart= 21 NShTot=      141089 NShNF=      141089 NShFF=           0 NBatch=        1311 AvBLen=       107.6
 IPart=  3 NShTot=      136110 NShNF=      136110 NShFF=           0 NBatch=        1354 AvBLen=       100.5
 IPart= 24 NShTot=      131812 NShNF=      131812 NShFF=           0 NBatch=        1336 AvBLen=        98.7
 IPart= 11 NShTot=      150139 NShNF=      150139 NShFF=           0 NBatch=        1437 AvBLen=       104.5
 IPart=  8 NShTot=      138246 NShNF=      138246 NShFF=           0 NBatch=        1282 AvBLen=       107.8
 IPart=  9 NShTot=      129160 NShNF=      129160 NShFF=           0 NBatch=        1228 AvBLen=       105.2
 IPart= 27 NShTot=      119065 NShNF=      119065 NShFF=           0 NBatch=        1382 AvBLen=        86.2
 IPart=  4 NShTot=      137973 NShNF=      137973 NShFF=           0 NBatch=        1270 AvBLen=       108.6
 IPart= 28 NShTot=      120301 NShNF=      120301 NShFF=           0 NBatch=        1286 AvBLen=        93.5
 IPart= 25 NShTot=      130973 NShNF=      130973 NShFF=           0 NBatch=        1286 AvBLen=       101.8
 IPart= 22 NShTot=      128288 NShNF=      128288 NShFF=           0 NBatch=        1205 AvBLen=       106.5
 IPart= 16 NShTot=      131563 NShNF=      131563 NShFF=           0 NBatch=        1248 AvBLen=       105.4
 IPart= 14 NShTot=      133590 NShNF=      133590 NShFF=           0 NBatch=        1238 AvBLen=       107.9
 IPart= 26 NShTot=      121237 NShNF=      121237 NShFF=           0 NBatch=        1364 AvBLen=        88.9
 IPart=  2 NShTot=      126271 NShNF=      126271 NShFF=           0 NBatch=        1308 AvBLen=        96.5
 IPart= 23 NShTot=      133413 NShNF=      133413 NShFF=           0 NBatch=        1330 AvBLen=       100.3
 IPart= 12 NShTot=      122640 NShNF=      122640 NShFF=           0 NBatch=        1324 AvBLen=        92.6
 IPart= 30 NShTot=      131202 NShNF=      131202 NShFF=           0 NBatch=        1350 AvBLen=        97.2
 IPart= 31 NShTot=      124390 NShNF=      124390 NShFF=           0 NBatch=        1289 AvBLen=        96.5
 IPart= 17 NShTot=      130414 NShNF=      130414 NShFF=           0 NBatch=        1408 AvBLen=        92.6
 IPart= 10 NShTot=      136282 NShNF=      136282 NShFF=           0 NBatch=        1257 AvBLen=       108.4
 IPart=  1 NShTot=      132848 NShNF=      132848 NShFF=           0 NBatch=        1414 AvBLen=        94.0
 IPart= 20 NShTot=      133842 NShNF=      133842 NShFF=           0 NBatch=        1253 AvBLen=       106.8
 IPart=  0 NShTot=      126333 NShNF=      126333 NShFF=           0 NBatch=        1101 AvBLen=       114.7
 IPart=  7 NShTot=      133356 NShNF=      133356 NShFF=           0 NBatch=        1282 AvBLen=       104.0
 IPart=  5 NShTot=      140844 NShNF=      140844 NShFF=           0 NBatch=        1454 AvBLen=        96.9
 IPart=  6 NShTot=      117086 NShNF=      117086 NShFF=           0 NBatch=        1318 AvBLen=        88.8
 IPart= 15 NShTot=      130440 NShNF=      130440 NShFF=           0 NBatch=        1330 AvBLen=        98.1
 IPart= 18 NShTot=      121204 NShNF=      121204 NShFF=           0 NBatch=        1395 AvBLen=        86.9
 IPart= 29 NShTot=      134180 NShNF=      134180 NShFF=           0 NBatch=        1308 AvBLen=       102.6
 IPart= 19 NShTot=      136896 NShNF=      136896 NShFF=           0 NBatch=        1386 AvBLen=        98.8
 CoulSu:  NxtVal=        5803009.
 ReadGW:  IGet=0 IStart=           1 Next=           1 LGW=           0.
 Remaining memory in FofDFT      399.87 Mw
 CkSvGd:  ISavGI=        -1 IRadAn=       5 IRASav=       5 ISavGd=        -1.
 CalDSu:  NPrtUS=  32 ThrOK=T IAlg=1 NPAlg=2 DoDPD=T LenP=       33930 LenD1P=             0.
 IPart=  0 IRanGd=          0 ScrnBf=T ScrnGd=T RCrit=4.00D+00 DoMicB=T.
 IPart= 23         5100 of         5524 points in       6 batches and       30 microbatches, Max-NSigAt=       8 Max-NSgAt2=       8
 IPart=  3         5748 of         6784 points in       9 batches and       66 microbatches, Max-NSigAt=       8 Max-NSgAt2=       8
 IPart= 12         6117 of         7170 points in      10 batches and       33 microbatches, Max-NSigAt=       8 Max-NSgAt2=       8
 IPart= 31         5839 of         6380 points in       7 batches and       14 microbatches, Max-NSigAt=       8 Max-NSgAt2=       8
 IPart= 25         5839 of         6696 points in       9 batches and       21 microbatches, Max-NSigAt=       8 Max-NSgAt2=       8
 IPart= 19         4919 of         5090 points in       5 batches and       29 microbatches, Max-NSigAt=       8 Max-NSgAt2=       8
 IPart=  8         5825 of         6698 points in       9 batches and       52 microbatches, Max-NSigAt=       8 Max-NSgAt2=       8
 IPart= 22         4590 of         4748 points in       4 batches and       15 microbatches, Max-NSigAt=       8 Max-NSgAt2=       8
 IPart=  4         5173 of         5364 points in       5 batches and       26 microbatches, Max-NSigAt=       8 Max-NSgAt2=       8
 IPart=  2         4615 of         4920 points in       5 batches and       28 microbatches, Max-NSigAt=       8 Max-NSgAt2=       8
 IPart=  7         5143 of         5552 points in       6 batches and       31 microbatches, Max-NSigAt=       8 Max-NSgAt2=       8
 IPart= 18         6305 of         7428 points in      10 batches and       50 microbatches, Max-NSigAt=       8 Max-NSgAt2=       8
 IPart=  1         5666 of         6326 points in       7 batches and       41 microbatches, Max-NSigAt=       8 Max-NSgAt2=       8
 IPart= 16         4757 of         5324 points in       5 batches and       21 microbatches, Max-NSigAt=       8 Max-NSgAt2=       8
 IPart= 20         4170 of         4790 points in       7 batches and       62 microbatches, Max-NSigAt=       8 Max-NSgAt2=       8
 IPart=  5         6220 of         7300 points in       9 batches and       36 microbatches, Max-NSigAt=       8 Max-NSgAt2=       8
 IPart= 30         4568 of         4720 points in       4 batches and       15 microbatches, Max-NSigAt=       8 Max-NSgAt2=       8
 IPart= 17         5272 of         5694 points in       6 batches and       28 microbatches, Max-NSigAt=       8 Max-NSgAt2=       8
 IPart=  9         4861 of         5090 points in       5 batches and       25 microbatches, Max-NSigAt=       8 Max-NSgAt2=       8
 IPart= 28         4993 of         5186 points in       6 batches and       18 microbatches, Max-NSigAt=       8 Max-NSgAt2=       8
 IPart= 21         5410 of         5996 points in       7 batches and       31 microbatches, Max-NSigAt=       8 Max-NSgAt2=       8
 IPart= 14         5499 of         5956 points in       6 batches and       29 microbatches, Max-NSigAt=       8 Max-NSgAt2=       8
 IPart= 11         5437 of         5984 points in       7 batches and       46 microbatches, Max-NSigAt=       8 Max-NSgAt2=       8
 IPart= 13         5352 of         5496 points in       5 batches and       16 microbatches, Max-NSigAt=       8 Max-NSgAt2=       8
 IPart=  6         6049 of         6724 points in       8 batches and       66 microbatches, Max-NSigAt=       8 Max-NSgAt2=       8
 IPart= 10         5138 of         5338 points in       5 batches and       22 microbatches, Max-NSigAt=       8 Max-NSgAt2=       8
 IPart=  0         5548 of         5548 points in       5 batches and       14 microbatches, Max-NSigAt=       8 Max-NSgAt2=       8
 IPart= 26         5333 of         5520 points in       5 batches and       20 microbatches, Max-NSigAt=       8 Max-NSgAt2=       8
 IPart= 29         4996 of         5352 points in       6 batches and       42 microbatches, Max-NSigAt=       8 Max-NSgAt2=       8
 IPart= 27         5142 of         5682 points in       7 batches and       62 microbatches, Max-NSigAt=       8 Max-NSgAt2=       8
 IPart= 24         5327 of         5480 points in       5 batches and       19 microbatches, Max-NSigAt=       8 Max-NSgAt2=       8
 IPart= 15         4749 of         5352 points in       6 batches and       49 microbatches, Max-NSigAt=       8 Max-NSgAt2=       8
 Forces at end of L703
 I=    0 X=   2.474846102096D-05 Y=  -1.290184432090D-05 Z=   3.389430661471D-06
 I=    1 X=  -1.113994413227D-02 Y=  -2.345893717714D-02 Z=  -7.289845041554D-03
 I=    2 X=   4.376656817042D-03 Y=   9.219938959076D-03 Z=  -1.136390409079D-03
 I=    3 X=   6.966798151979D-04 Y=   9.243367170573D-03 Z=   4.432839617624D-03
 I=    4 X=   6.724760763568D-03 Y=   6.381123604057D-03 Z=   4.430896234105D-03
 I=    5 X=   1.104296913928D-02 Y=   2.346219164728D-02 Z=   7.425835083954D-03
 I=    6 X=  -6.500978488591D-04 Y=  -9.226761854959D-03 Z=  -4.469142496393D-03
 I=    7 X=  -6.696238072731D-03 Y=  -6.381965276553D-03 Z=  -4.474126190009D-03
 I=    8 X=  -4.354786481227D-03 Y=  -9.238957072338D-03 Z=   1.079933201357D-03
 FrcOut:
 IF    =    45 IFX   =    69 IFXYZ =    93
 IFFX  =   117 IFFFX =   417 IFLen =    24
 IFFLen=   300 IFFFLn=     0 IEDerv=   417
 LEDerv=  1205 IFroze=  1904 ICStrt=108261
 FCEst1:  Generated internal coordinate force constants:
                1             2             3             4             5 
      1  0.577707D+00
      2 -0.128675D+00  0.367689D+00
      3 -0.406060D-01 -0.855443D-01  0.612109D+00
      4 -0.843009D-01  0.980972D-02 -0.901518D-02  0.623788D-01
      5  0.980968D-02 -0.682851D-01 -0.189938D-01 -0.428650D-02  0.553774D-01
      6  0.000000D+00  0.000000D+00 -0.355866D+00  0.000000D+00  0.000000D+00
      7 -0.318190D+00  0.379945D-02  0.983377D-01  0.149101D-01  0.131874D-03
      8 -0.137080D-01 -0.682509D-01  0.163974D-01  0.340245D-03  0.980993D-03
      9  0.893316D-01  0.903704D-02 -0.121850D+00  0.354638D-01  0.313665D-03
     10 -0.163307D+00  0.112683D+00 -0.494692D-01  0.631761D-02 -0.667161D-02
     11  0.130190D+00 -0.223133D+00  0.865581D-01 -0.688002D-02  0.957348D-02
     12 -0.494775D-01  0.749267D-01 -0.121849D+00 -0.221787D-01  0.276745D-01
     13 -0.157046D-01  0.402081D-02  0.127065D-02  0.694416D-03  0.101657D-02
     14  0.401824D-02 -0.913939D-02  0.267026D-02  0.101661D-02  0.235314D-02
     15  0.126902D-02  0.266854D-02 -0.167730D-01 -0.427004D-02 -0.899426D-02
     16 -0.142138D-02  0.394525D-03  0.888904D-03 -0.187469D-03  0.889986D-04
     17 -0.789878D-02  0.235611D-02  0.442057D-02  0.229746D-03 -0.109069D-03
     18 -0.337933D-02  0.937890D-03  0.211365D-02 -0.446413D-03  0.211929D-03
     19  0.452011D-02 -0.304873D-02  0.286369D-02 -0.296569D-03  0.140792D-03
     20  0.524303D-02 -0.358775D-02  0.348476D-02  0.000000D+00  0.000000D+00
     21  0.286237D-02 -0.202537D-02  0.211396D-02  0.446299D-03 -0.211874D-03
     22  0.696524D-03  0.101575D-02 -0.427049D-02  0.484074D-03 -0.229807D-03
     23  0.102030D-02  0.235098D-02 -0.899302D-02 -0.229885D-03  0.109135D-03
     24  0.000000D+00  0.000000D+00  0.167407D-05  0.000000D+00  0.000000D+00
                6             7             8             9            10 
      6  0.355866D+00
      7  0.000000D+00  0.311680D+00
      8  0.000000D+00 -0.166255D-02  0.553588D-01
      9  0.000000D+00 -0.104815D+00 -0.395438D-02  0.106443D+00
     10  0.000000D+00 -0.697945D-02  0.229268D-01 -0.166007D-01  0.159449D+00
     11  0.000000D+00 -0.266289D-02  0.955679D-02 -0.633371D-02 -0.125889D+00
     12  0.000000D+00  0.558851D-02 -0.168660D-01  0.132923D-01  0.632054D-01
     13  0.000000D+00 -0.142072D-02 -0.789651D-02 -0.337920D-02  0.452027D-02
     14  0.000000D+00  0.394081D-03  0.235429D-02  0.937326D-03 -0.304910D-02
     15  0.000000D+00  0.889318D-03  0.442293D-02  0.211525D-02  0.286459D-02
     16  0.000000D+00  0.726566D-04 -0.889783D-04  0.172814D-03  0.114864D-03
     17  0.000000D+00 -0.890413D-04  0.109044D-03 -0.211786D-03 -0.140767D-03
     18  0.000000D+00  0.173014D-03 -0.211881D-03  0.411516D-03  0.273522D-03
     19  0.000000D+00  0.114940D-03 -0.140760D-03  0.273386D-03  0.181711D-03
     20  0.000000D+00  0.000000D+00  0.000000D+00  0.000000D+00  0.000000D+00
     21  0.000000D+00 -0.172970D-03  0.211826D-03 -0.411411D-03 -0.273452D-03
     22  0.000000D+00 -0.187610D-03  0.229755D-03 -0.446233D-03 -0.296596D-03
     23  0.000000D+00  0.890955D-04 -0.109110D-03  0.211915D-03  0.140853D-03
     24  0.000000D+00  0.000000D+00  0.000000D+00  0.000000D+00  0.000000D+00
               11            12            13            14            15 
     11  0.207590D+00
     12 -0.837096D-01  0.106442D+00
     13  0.524198D-02  0.286227D-02  0.577924D+00
     14 -0.358736D-02 -0.202551D-02 -0.128727D+00  0.367650D+00
     15  0.348513D-02  0.211457D-02 -0.406806D-01 -0.854166D-01  0.611931D+00
     16  0.000000D+00 -0.172814D-03 -0.318354D+00  0.385395D-02  0.983159D-01
     17  0.000000D+00  0.211785D-03 -0.136616D-01 -0.682725D-01  0.163704D-01
     18  0.000000D+00 -0.411515D-03  0.893076D-01  0.901490D-02 -0.121826D+00
     19  0.000000D+00 -0.273385D-03 -0.163368D+00  0.112695D+00 -0.494713D-01
     20  0.000000D+00  0.000000D+00  0.130198D+00 -0.223101D+00  0.865529D-01
     21  0.000000D+00  0.411410D-03 -0.494706D-01  0.749167D-01 -0.121818D+00
     22  0.000000D+00  0.446231D-03 -0.842918D-01  0.979832D-02 -0.891692D-02
     23  0.000000D+00 -0.211914D-03  0.980765D-02 -0.682567D-01 -0.190890D-01
     24  0.000000D+00  0.000000D+00  0.898820D-04 -0.970754D-04 -0.355744D+00
               16            17            18            19            20 
     16  0.311847D+00
     17 -0.171806D-02  0.553723D-01
     18 -0.104792D+00 -0.392307D-02  0.106404D+00
     19 -0.696996D-02  0.229272D-01 -0.166053D-01  0.159498D+00
     20 -0.266092D-02  0.956293D-02 -0.633985D-02 -0.125902D+00  0.207558D+00
     21  0.558163D-02 -0.168676D-01  0.132969D-01  0.632084D-01 -0.836921D-01
     22  0.148991D-01  0.351347D-03  0.354684D-01  0.631898D-02 -0.687814D-02
     23  0.130530D-03  0.981150D-03  0.310193D-03 -0.667120D-02  0.956784D-02
     24  0.507575D-05  0.000000D+00  0.120833D-04  0.450284D-05 -0.570707D-05
               21            22            23            24 
     21  0.106424D+00
     22 -0.221817D-01  0.623773D-01
     23  0.276683D-01 -0.428734D-02  0.553568D-01
     24 -0.172914D-04 -0.993435D-04  0.103477D-03  0.355747D+00
 Quadrupole    =-2.24275732D-01 5.78684032D-01-3.54408300D-01
                 4.92049083D-01 1.54534311D-01 3.26673115D-01
 -------------------------------------------------------------------
 Center     Atomic                   Forces (Hartrees/Bohr)
 Number     Number              X              Y              Z
 -------------------------------------------------------------------
      1        6           0.011139944    0.023458937    0.007289845
      2        1          -0.004376657   -0.009219939    0.001136390
      3        1          -0.000696680   -0.009243367   -0.004432840
      4        1          -0.006724761   -0.006381124   -0.004430896
      5        6          -0.011042969   -0.023462192   -0.007425835
      6        1           0.000650098    0.009226762    0.004469142
      7        1           0.006696238    0.006381965    0.004474126
      8        1           0.004354786    0.009238957   -0.001079933
 -------------------------------------------------------------------
 Cartesian Forces:  Max     0.023462192 RMS     0.009328126
 From PutF, contents of force:
   1    0.1136390409D-02
   2    0.1075809509D-02
   3    0.1079211163D-02
   4    0.8919771623D-02
   5    0.8912532219D-02
   6   -0.1744895190D-01
   7    0.1133447355D-02
   8    0.1079817328D-02
   9    0.1078202056D-02
  10    0.8931151026D-02
  11    0.8914108671D-02
  12    0.1743956821D-01
  13   -0.2302584029D-05
  14   -0.2719144230D-05
  15   -0.6832880757D-05
  16   -0.4936979335D-05
  17   -0.9843962672D-05
  18   -0.1595042772D-02
 -----------------------------------------------------------------------------------------------
                       Internal Coordinate Forces (Hartree/Bohr or radian)
  Cent   Atom   N1       Length/X         N2         Alpha/Y        N3         Beta/Z          J
 -----------------------------------------------------------------------------------------------
      1  C 
      2  H        1   0.001136(     1)
      3  H        1   0.001076(     2)      2   0.008920(     8)
      4  H        1   0.001079(     3)      2   0.008913(     9)      3  -0.017449(    14)     0
      5  C        1  -0.001595(     4)      2  -0.000010(    10)      3  -0.000005(    15)     0
      6  H        5   0.001133(     5)      1  -0.000002(    11)      2  -0.000007(    16)     0
      7  H        5   0.001080(     6)      6   0.008931(    12)      1  -0.000003(    17)     0
      8  H        5   0.001078(     7)      6   0.008914(    13)      7   0.017440(    18)     0
 -----------------------------------------------------------------------------------------------
 Internal  Forces:  Max     0.017448952 RMS     0.007213405
 Force constants in Cartesian coordinates: 
                1             2             3             4             5 
      1  0.577707D+00
      2 -0.128675D+00  0.367689D+00
      3 -0.406060D-01 -0.855443D-01  0.612109D+00
      4 -0.843009D-01  0.980972D-02 -0.901518D-02  0.623788D-01
      5  0.980968D-02 -0.682851D-01 -0.189938D-01 -0.428650D-02  0.553774D-01
      6  0.000000D+00  0.000000D+00 -0.355866D+00  0.000000D+00  0.000000D+00
      7 -0.318190D+00  0.379945D-02  0.983377D-01  0.149101D-01  0.131874D-03
      8 -0.137080D-01 -0.682509D-01  0.163974D-01  0.340245D-03  0.980993D-03
      9  0.893316D-01  0.903704D-02 -0.121850D+00  0.354638D-01  0.313665D-03
     10 -0.163307D+00  0.112683D+00 -0.494692D-01  0.631761D-02 -0.667161D-02
     11  0.130190D+00 -0.223133D+00  0.865581D-01 -0.688002D-02  0.957348D-02
     12 -0.494775D-01  0.749267D-01 -0.121849D+00 -0.221787D-01  0.276745D-01
     13 -0.157046D-01  0.402081D-02  0.127065D-02  0.694416D-03  0.101657D-02
     14  0.401824D-02 -0.913939D-02  0.267026D-02  0.101661D-02  0.235314D-02
     15  0.126902D-02  0.266854D-02 -0.167730D-01 -0.427004D-02 -0.899426D-02
     16 -0.142138D-02  0.394525D-03  0.888904D-03 -0.187469D-03  0.889986D-04
     17 -0.789878D-02  0.235611D-02  0.442057D-02  0.229746D-03 -0.109069D-03
     18 -0.337933D-02  0.937890D-03  0.211365D-02 -0.446413D-03  0.211929D-03
     19  0.452011D-02 -0.304873D-02  0.286369D-02 -0.296569D-03  0.140792D-03
     20  0.524303D-02 -0.358775D-02  0.348476D-02  0.000000D+00  0.000000D+00
     21  0.286237D-02 -0.202537D-02  0.211396D-02  0.446299D-03 -0.211874D-03
     22  0.696524D-03  0.101575D-02 -0.427049D-02  0.484074D-03 -0.229807D-03
     23  0.102030D-02  0.235098D-02 -0.899302D-02 -0.229885D-03  0.109135D-03
     24  0.000000D+00  0.000000D+00  0.167407D-05  0.000000D+00  0.000000D+00
                6             7             8             9            10 
      6  0.355866D+00
      7  0.000000D+00  0.311680D+00
      8  0.000000D+00 -0.166255D-02  0.553588D-01
      9  0.000000D+00 -0.104815D+00 -0.395438D-02  0.106443D+00
     10  0.000000D+00 -0.697945D-02  0.229268D-01 -0.166007D-01  0.159449D+00
     11  0.000000D+00 -0.266289D-02  0.955679D-02 -0.633371D-02 -0.125889D+00
     12  0.000000D+00  0.558851D-02 -0.168660D-01  0.132923D-01  0.632054D-01
     13  0.000000D+00 -0.142072D-02 -0.789651D-02 -0.337920D-02  0.452027D-02
     14  0.000000D+00  0.394081D-03  0.235429D-02  0.937326D-03 -0.304910D-02
     15  0.000000D+00  0.889318D-03  0.442293D-02  0.211525D-02  0.286459D-02
     16  0.000000D+00  0.726566D-04 -0.889783D-04  0.172814D-03  0.114864D-03
     17  0.000000D+00 -0.890413D-04  0.109044D-03 -0.211786D-03 -0.140767D-03
     18  0.000000D+00  0.173014D-03 -0.211881D-03  0.411516D-03  0.273522D-03
     19  0.000000D+00  0.114940D-03 -0.140760D-03  0.273386D-03  0.181711D-03
     20  0.000000D+00  0.000000D+00  0.000000D+00  0.000000D+00  0.000000D+00
     21  0.000000D+00 -0.172970D-03  0.211826D-03 -0.411411D-03 -0.273452D-03
     22  0.000000D+00 -0.187610D-03  0.229755D-03 -0.446233D-03 -0.296596D-03
     23  0.000000D+00  0.890955D-04 -0.109110D-03  0.211915D-03  0.140853D-03
     24  0.000000D+00  0.000000D+00  0.000000D+00  0.000000D+00  0.000000D+00
               11            12            13            14            15 
     11  0.207590D+00
     12 -0.837096D-01  0.106442D+00
     13  0.524198D-02  0.286227D-02  0.577924D+00
     14 -0.358736D-02 -0.202551D-02 -0.128727D+00  0.367650D+00
     15  0.348513D-02  0.211457D-02 -0.406806D-01 -0.854166D-01  0.611931D+00
     16  0.000000D+00 -0.172814D-03 -0.318354D+00  0.385395D-02  0.983159D-01
     17  0.000000D+00  0.211785D-03 -0.136616D-01 -0.682725D-01  0.163704D-01
     18  0.000000D+00 -0.411515D-03  0.893076D-01  0.901490D-02 -0.121826D+00
     19  0.000000D+00 -0.273385D-03 -0.163368D+00  0.112695D+00 -0.494713D-01
     20  0.000000D+00  0.000000D+00  0.130198D+00 -0.223101D+00  0.865529D-01
     21  0.000000D+00  0.411410D-03 -0.494706D-01  0.749167D-01 -0.121818D+00
     22  0.000000D+00  0.446231D-03 -0.842918D-01  0.979832D-02 -0.891692D-02
     23  0.000000D+00 -0.211914D-03  0.980765D-02 -0.682567D-01 -0.190890D-01
     24  0.000000D+00  0.000000D+00  0.898820D-04 -0.970754D-04 -0.355744D+00
               16            17            18            19            20 
     16  0.311847D+00
     17 -0.171806D-02  0.553723D-01
[...]
     1   6    -0.00   0.00  -0.00    -0.00   0.00  -0.00    -0.04  -0.00  -0.01
     2   1    -0.00   0.00   0.41    -0.00   0.00   0.41    -0.01  -0.00   0.05
     3   1     0.36   0.00  -0.21     0.35   0.00  -0.20     0.22  -0.00  -0.13
     4   1    -0.36  -0.00  -0.21    -0.35  -0.00  -0.20     0.26   0.00   0.15
     5   6     0.00   0.00  -0.00    -0.00  -0.00   0.00     0.07   0.00   0.06
     6   1     0.35   0.00  -0.20    -0.35  -0.00   0.21    -0.23  -0.00   0.15
     7   1    -0.35  -0.01  -0.20     0.36   0.01   0.20    -0.64  -0.02  -0.36
     8   1     0.00   0.00   0.41    -0.00  -0.00  -0.41     0.01  -0.00  -0.46
                     16                     17                     18
                      A                      A                      A
 Frequencies --   3303.9612              3304.4500              3304.4869
 Red. masses --      1.1186                 1.1185                 1.1186
 Frc consts  --      7.1942                 7.1962                 7.1964
 IR Inten    --   1.563                  6.303                  6.482    
  Atom  AN      X      Y      Z        X      Y      Z        X      Y      Z
     1   6    -0.06  -0.00   0.07     0.07   0.00   0.06    -0.00   0.00   0.04
     2   1    -0.01   0.00  -0.57     0.01   0.00  -0.46    -0.00  -0.00  -0.34
     3   1     0.61  -0.00  -0.35    -0.22   0.00   0.14     0.17   0.00  -0.09
     4   1     0.10   0.00   0.08    -0.63  -0.00  -0.36    -0.13  -0.00  -0.07
     5   6     0.00  -0.00  -0.04     0.04   0.00   0.00    -0.05  -0.00   0.07
     6   1    -0.17  -0.00   0.09    -0.25  -0.00   0.15     0.59   0.00  -0.34
     7   1     0.11   0.00   0.06    -0.26  -0.01  -0.15     0.07   0.00   0.06
     8   1     0.00   0.00   0.32     0.01  -0.00  -0.01    -0.01  -0.01  -0.59

 -------------------
 - Thermochemistry -
 -------------------
 Temperature   298.150 Kelvin.  Pressure   1.00000 Atm.
 Atom     1 has atomic number  6 and mass  12.00000
 Atom     2 has atomic number  1 and mass   1.00783
 Atom     3 has atomic number  1 and mass   1.00783
 Atom     4 has atomic number  1 and mass   1.00783
 Atom     5 has atomic number  6 and mass  12.00000
 Atom     6 has atomic number  1 and mass   1.00783
 Atom     7 has atomic number  1 and mass   1.00783
 Atom     8 has atomic number  1 and mass   1.00783
 Molecular mass:    30.04695 amu.
 Principal axes and moments of inertia in atomic units:
                           1         2         3
     Eigenvalues --    25.10280 441.58848 441.59376
           X           -0.01150   0.21402   0.97676
           Y            0.99993   0.00439   0.01081
           Z           -0.00197   0.97682  -0.21406
 This molecule is an asymmetric top.
 Rotational symmetry number  1.
 Rotational temperatures (Kelvin)      3.45036     0.19614     0.19614
 Rotational constants (GHZ):          71.89402     4.08693     4.08688
    2 imaginary frequencies ignored.
 Zero-point vibrational energy     159029.0 (Joules/Mol)
                                   38.00884 (Kcal/Mol)
 Warning -- explicit consideration of   6 degrees of freedom as
           vibrations may cause significant error
 Vibrational temperatures:    132.21   145.57   168.37   173.60   756.43
          (Kelvin)            761.51  2027.07  2027.58  2028.96  2029.46
                             4493.20  4493.53  4753.61  4753.66  4754.36
                             4754.41
 
 Zero-point correction=                           0.060571 (Hartree/Particle)
 Thermal correction to Energy=                    0.066722
 Thermal correction to Enthalpy=                  0.067666
 Thermal correction to Gibbs Free Energy=         0.032608
 Sum of electronic and zero-point Energies=            -79.619021
 Sum of electronic and thermal Energies=               -79.612870
 Sum of electronic and thermal Enthalpies=             -79.611925
 Sum of electronic and thermal Free Energies=          -79.646984
 
                     E (Thermal)             CV                S
                      KCal/Mol        Cal/Mol-Kelvin    Cal/Mol-Kelvin
 Total                   41.869             16.520             73.786
 Electronic               0.000              0.000              0.000
 Translational            0.889              2.981             36.134
 Rotational               0.889              2.981             23.108
 Vibrational             40.091             10.559             14.544
 Vibration     1          0.602              1.955              3.619
 Vibration     2          0.604              1.948              3.432
 Vibration     3          0.608              1.935              3.149
 Vibration     4          0.609              1.932              3.090
 Vibration     5          0.881              1.193              0.597
 Vibration     6          0.884              1.185              0.589
                       Q            Log10(Q)             Ln(Q)
 Total Bot       0.100307D-14        -14.998669        -34.535711
 Total V=0       0.727731D+13         12.861971         29.615782
 Vib (Bot)       0.618653D-26        -26.208553        -60.347422
 Vib (Bot)    1  0.223669D+01          0.349606          0.804996
 Vib (Bot)    2  0.202795D+01          0.307057          0.707026
 Vib (Bot)    3  0.174747D+01          0.242411          0.558172
 Vib (Bot)    4  0.169340D+01          0.228760          0.526740
 Vib (Bot)    5  0.305397D+00         -0.515136         -1.186144
 Vib (Bot)    6  0.302371D+00         -0.519459         -1.196099
 Vib (V=0)       0.448835D+02          1.652087          3.804071
 Vib (V=0)    1  0.279189D+01          0.445899          1.026720
 Vib (V=0)    2  0.258868D+01          0.413078          0.951148
 Vib (V=0)    3  0.231760D+01          0.365038          0.840532
 Vib (V=0)    4  0.226568D+01          0.355198          0.817873
 Vib (V=0)    5  0.108589D+01          0.035786          0.082400
 Vib (V=0)    6  0.108432D+01          0.035157          0.080952
 Electronic      0.100000D+01          0.000000          0.000000
 Translational   0.647375D+07          6.811156         15.683266
 Rotational      0.250454D+05          4.398728         10.128445
 -------------------------------------------------------------------
 Center     Atomic                   Forces (Hartrees/Bohr)
 Number     Number              X              Y              Z
 -------------------------------------------------------------------
      1        6           0.000084900   -0.001371908   -0.000018753
      2        1          -0.000038550   -0.000002963    0.000021930
      3        1          -0.000027783    0.000004570   -0.000015076
      4        1          -0.000003015   -0.000004314    0.000011857
      5        6           0.000033874    0.001381560    0.000057364
      6        1          -0.000040186   -0.000005412   -0.000024344
      7        1           0.000001227   -0.000005113   -0.000036368
      8        1          -0.000010467    0.000003580    0.000003389
 -------------------------------------------------------------------
 Cartesian Forces:  Max     0.001381560 RMS     0.000398420
 -----------------------------------------------------------------------------------------------
                       Internal Coordinate Forces (Hartree/Bohr or radian)
  Cent   Atom   N1       Length/X         N2         Alpha/Y        N3         Beta/Z          J
 -----------------------------------------------------------------------------------------------
      1  C 
      2  H        1   0.000022(     1)
      3  H        1  -0.000017(     2)      2   0.000055(     8)
      4  H        1  -0.000003(     3)      2  -0.000024(     9)      3  -0.000008(    14)     0
      5  C        1  -0.001375(     4)      2  -0.000005(    10)      3  -0.000001(    15)     0
      6  H        5   0.000022(     5)      1   0.000008(    11)      2  -0.000003(    16)     0
      7  H        5  -0.000017(     6)      6   0.000066(    12)      1   0.000015(    17)     0
      8  H        5  -0.000003(     7)      6  -0.000021(    13)      7   0.000006(    18)     0
 -----------------------------------------------------------------------------------------------
 Internal  Forces:  Max     0.001374699 RMS     0.000324905

 GradGradGradGradGradGradGradGradGradGradGradGradGradGradGradGradGradGrad
 Berny optimization.
 Search for a local minimum.
 Step number   1 out of a maximum of    2
 All quantities printed in internal units (Hartrees-Bohrs-Radians)
 Second derivative matrix not updated -- analytic derivatives used.
 The second derivative matrix:
                          R1        R2        R3        A2        A3
           R1           0.37188
           R2           0.00005   0.37186
           R3           0.00004   0.00005   0.37194
           A2           0.01586   0.00009  -0.01588   0.18903
           A3           0.01585  -0.01589   0.00008   0.09451   0.18894
           D3           0.00014   0.00022   0.00002  -0.00028  -0.00046
           R21          0.00003  -0.00002   0.00003  -0.00000   0.00001
           R22          0.00003   0.00003  -0.00002   0.00001   0.00000
           R23         -0.00003   0.00003   0.00003  -0.00001  -0.00001
           A22          0.00001  -0.00001  -0.00000  -0.00009  -0.00018
           A23          0.00000  -0.00001   0.00001   0.00010  -0.00009
           D23          0.00003  -0.00009  -0.00009   0.00008   0.00008
           ANG2         0.00006  -0.00014   0.00007   0.00000   0.00013
           DH3          0.00012   0.00000  -0.00012   0.00016   0.00008
           DH2         -0.00000   0.00000  -0.00000   0.00001  -0.00001
           DH1          0.00000  -0.00019   0.00019  -0.00015   0.00014
           ANG1        -0.00025   0.00011   0.00011  -0.00028  -0.00027
           BB          -0.00003  -0.00002  -0.00002   0.00000   0.00000
                          D3        R21       R22       R23       A22
           D3           0.00964
           R21          0.00009   0.37200
           R22         -0.00003   0.00006   0.37185
           R23          0.00008   0.00004   0.00004   0.37185
           A22         -0.00000   0.01589  -0.00006  -0.01584   0.18899
           A23          0.00008   0.01578  -0.01578   0.00001   0.09447
           D23         -0.00011  -0.00014  -0.00023  -0.00004   0.00031
           ANG2        -0.00005  -0.00016   0.00017   0.00013  -0.00035
           DH3          0.00006   0.00000  -0.00028   0.00016  -0.00006
           DH2          0.00000  -0.00019   0.00018  -0.00000   0.00007
           DH1         -0.00095  -0.00016   0.00004  -0.00003   0.00004
           ANG1        -0.00060   0.00010   0.00003  -0.00016   0.00017
           BB           0.00023  -0.00002  -0.00003  -0.00003   0.00000
                          A23       D23      ANG2       DH3       DH2
           A23          0.18891
           D23          0.00048   0.01020
           ANG2        -0.00028   0.00105   0.00248
           DH3          0.00019   0.00184   0.00055   0.00294
           DH2         -0.00000   0.00001  -0.00002  -0.00001  -0.00002
           DH1         -0.00011   0.00002  -0.00015   0.00009   0.00002
           ANG1         0.00003   0.00100   0.00065   0.00115   0.00000
           BB           0.00000  -0.00019   0.00004   0.00002  -0.00001
                          DH1      ANG1       BB
           DH1          0.00141
           ANG1         0.00004   0.00242
           BB           0.00001  -0.00000  -0.00147
 ITU=  0
     Eigenvalues ---   -0.00002   0.00125   0.00142   0.00216   0.00346
     Eigenvalues ---    0.00976   0.01103   0.09352   0.09362   0.27551
     Eigenvalues ---    0.27577   0.37196   0.37202   0.37269   0.37277
     Eigenvalues ---    0.37966   0.379711000.00000
 Eigenvalue     1 is  -2.20D-05 should be greater than     0.000000 Eigenvector:
                          DH2       DH1      ANG2       DH3      ANG1
   1                    0.99980  -0.01532   0.01018   0.00515  -0.00508
                          D23       D3        R21       R22       A22
   1                   -0.00251  -0.00206   0.00051  -0.00048  -0.00046
 Angle between quadratic step and forces=  87.28 degrees.
 Linear search not attempted -- first point.
 Variable       Old X    -DE/DX   Delta X   Delta X   Delta X     New X
                                 (Linear)    (Quad)   (Total)
    R1        2.03747   0.00002   0.00000   0.00005   0.00005   2.03752
    R2        2.03760  -0.00002   0.00000  -0.00006  -0.00006   2.03754
    R3        2.03753  -0.00000   0.00000   0.00001   0.00001   2.03754
    A2        2.09398   0.00005   0.00000   0.00048   0.00048   2.09446
    A3        2.09485  -0.00002   0.00000  -0.00040  -0.00040   2.09445
    D3        3.13592  -0.00001   0.00000  -0.00117  -0.00117   3.13474
   R21        2.03748   0.00002   0.00000  -0.00000  -0.00000   2.03748
   R22        2.03760  -0.00002   0.00000  -0.00001  -0.00001   2.03759
   R23        2.03751  -0.00000   0.00000   0.00001   0.00001   2.03752
   A22        2.09371   0.00007   0.00000   0.00061   0.00061   2.09432
   A23        2.09485  -0.00002   0.00000  -0.00042  -0.00042   2.09443
   D23        3.14781   0.00001   0.00000  -0.00011  -0.00011   3.14770
   ANG2       1.56807   0.00001   0.00000   0.00247   0.00247   1.57053
   DH3        1.55674   0.00001   0.00000   0.00673   0.00673   1.56347
   DH2        1.03930  -0.00000   0.00000  -0.10980  -0.10980   0.92950
   DH1        1.55935  -0.00000   0.00000   0.00011   0.00011   1.55946
   ANG1       1.56870  -0.00001   0.00000  -0.00633  -0.00633   1.56237
    BB        7.55890  -0.00137   0.00000   0.00000   0.00000   7.55890
         Item               Value     Threshold  Converged?
 Maximum Force            0.000066     0.000450     YES
 RMS     Force            0.000025     0.000300     YES
 Maximum Displacement     0.109796     0.001800     NO 
 RMS     Displacement     0.025980     0.001200     NO 
 Predicted change in Energy=-5.313413D-07
 GradGradGradGradGradGradGradGradGradGradGradGradGradGradGradGradGradGrad


 Test job not archived.
 1\1\GINC-NODE-6-11\Freq\UwB97XD\Aug-CC-pVTZ\C2H6\CAVALLOTTI\27-May-202
 3\1\\#N Geom=AllCheck Guess=TCheck SCRF=Check Test GenChk UwB97XD/Aug-
 CC-pVTZ Freq\\geom 0\\0,1\C\H,1,R1\H,1,R2,2,A2\H,1,R3,2,A3,3,D3,0\C,1,
 BB,2,ANG1,3,DH1,0\H,5,R21,1,ANG2,2,DH2,0\H,5,R22,6,A22,1,DH3,0\H,5,R23
 ,6,A23,7,D23,0\\R1=1.07818176\R2=1.07824937\R3=1.07821388\A2=119.97644
 834\A3=120.02586694\D3=179.67493091\R21=1.0781887\R22=1.07825034\R23=1
 .07820509\A22=119.96065187\A23=120.02616437\D23=180.35626851\ANG2=89.8
 4352166\DH3=89.19476878\DH2=59.54739387\DH1=89.34423804\ANG1=89.879657
 44\BB=4.\\Version=EM64L-G09RevD.01\HF=-79.6795918\S2=0.992769\S2-1=0.\
 S2A=0.061012\RMSD=1.004e-09\RMSF=3.984e-04\ZeroPoint=0.0605709\Thermal
 =0.0667222\Dipole=-0.0000438,0.0001461,-0.0000154\DipoleDeriv=0.016260
 3,0.0011317,0.0000107,0.0014824,-0.4568345,0.0003602,-0.0000008,0.0011
 425,0.0166849,0.0424623,-0.0003707,-0.0000949,-0.0004142,0.1538936,0.0
 019924,0.0000184,0.0029957,-0.0534939,-0.0295765,0.0029718,0.0410197,0
 .0013632,0.1512795,-0.0010775,0.0408432,-0.0020459,0.0183699,-0.029156
 6,-0.0036643,-0.0409604,-0.0024223,0.1512914,-0.0013265,-0.0408909,-0.
 0021002,0.0184506,0.0160728,0.0074883,-0.0000789,0.0074875,-0.4552485,
 0.0054802,-0.0001125,0.0058931,0.0166195,-0.0287342,0.0009122,0.041305
 2,-0.0005121,0.1508779,-0.0018289,0.0413733,-0.0027391,0.0176802,-0.02
 99345,-0.0066733,-0.0405529,-0.0052321,0.1515034,-0.0033962,-0.0405158
 ,-0.0041595,0.0189612,0.0426063,-0.0017956,-0.0006486,-0.0017525,0.153
 2372,-0.0002038,-0.000715,0.0010135,-0.0532723\Polar=31.4010357,-0.084
 3363,38.7139649,0.0011409,-0.0245504,31.3936096\PG=C01 [X(C2H6)]\NImag
 =2\\0.62004277,0.00172710,0.02345006,0.00017127,0.00097560,0.62012394,
 -0.05482751,-0.00012812,-0.00000266,0.04551188,-0.00013643,-0.00853947
 ,0.00023391,0.00012157,0.00326881,0.00001134,-0.00019994,-0.35841198,-
 0.00002473,-0.00000988,0.37188412,-0.28255302,-0.00026624,0.13141618,0
 .00466397,0.00008637,-0.00384394,0.29034541,0.00011810,-0.00837329,-0.
 00022262,0.00003400,0.00269446,0.00008034,0.00008183,0.00309198,0.1314
 3778,-0.00000054,-0.13060357,0.02359928,-0.00000526,-0.00676895,-0.141
 26249,0.00008899,0.12705062,-0.28239818,-0.00130230,-0.13158663,0.0046
 8105,-0.00007196,0.00385767,-0.01248425,-0.00016149,-0.01374121,0.2901
 7281,-0.00168507,-0.00836942,-0.00098057,-0.00002582,0.00267845,0.0000
 9872,0.00007614,0.00271638,-0.00007156,0.00155608,0.00310439,-0.131622
 08,-0.00076271,-0.13084445,-0.02357156,-0.00013994,-0.00675365,0.01372
 454,0.00000722,0.01033336,0.14143634,0.00090614,0.12727564,-0.00033509
 ,-0.00002378,-0.00000173,0.00004335,-0.00000069,-0.00000184,0.00001302
 ,-0.00010087,0.00001932,0.00001384,0.00010485,-0.00001560,0.61975766,-
 0.00002658,0.00182825,-0.00000334,-0.00000131,0.00003487,0.00010426,0.
 00009920,-0.00001288,-0.00005453,-0.00009274,-0.00001411,-0.00005161,0
 .00966322,0.02366771,0.00000126,-0.00001141,-0.00033498,-0.00000116,-0
 .00011185,0.00000600,0.00001442,0.00005508,0.00003328,-0.00001537,0.00
 005810,0.00003385,-0.00022768,0.00716051,0.62017828,0.00001382,0.00009
 494,0.00001629,-0.00001390,-0.00005729,-0.00002395,0.00000640,0.000015
 65,-0.00002922,0.00002142,-0.00003244,0.00000185,-0.28044871,-0.002491
 59,0.13271964,0.28810417,-0.00009927,-0.00001566,0.00006098,-0.0000216
 4,-0.00004001,-0.00004616,0.00001372,-0.00005007,-0.00000887,0.0000325
 0,-0.00002827,0.00004236,-0.00208059,-0.00839592,0.00024914,0.00236911
 ,0.00310826,0.00001788,-0.00005036,0.00003188,-0.00001720,0.00000748,0
 .00001003,-0.00002842,-0.00000738,-0.00002618,-0.00000380,0.00004414,-
 0.00002767,0.13275577,0.00046984,-0.13281883,-0.14264412,-0.00049859,0
 .12939965,0.00001457,-0.00010293,-0.00001551,-0.00001599,0.00005743,0.
 00002512,0.00002243,0.00003403,-0.00000483,0.00000810,-0.00001497,0.00
 002910,-0.28420780,-0.00639152,-0.13027551,-0.01250455,-0.00051211,-0.
 01356452,0.29215209,0.00009860,0.00000367,0.00005143,0.00002222,-0.000
 04122,-0.00004658,-0.00003418,-0.00003154,0.00004541,-0.00001500,-0.00
 005317,-0.00000823,-0.00679525,-0.00852410,-0.00401754,0.00002751,0.00
 273480,-0.00016306,0.00694620,0.00323242,-0.00001770,-0.00005832,0.000
 03384,0.00001848,0.00000658,0.00000889,0.00000384,0.00004503,-0.000027
 60,0.00002888,-0.00000779,-0.00002652,-0.13032179,-0.00379375,-0.12876
 370,0.01390473,0.00026789,0.01033374,0.14003869,0.00409657,0.12504444,
 0.00004264,0.00000134,0.00000279,-0.00004284,0.00000101,0.00000032,-0.
 00001397,-0.00002125,-0.00001864,-0.00001479,0.00002123,0.00001742,-0.
 05483627,-0.00075869,-0.00221559,0.00482135,0.00029828,0.02348442,0.00
 453115,-0.00025009,-0.02365513,0.04551274,0.00000357,0.00001586,-0.000
 11538,-0.00000090,-0.00005589,0.00001925,-0.00005684,-0.00003505,0.000
 00637,0.00005492,-0.00003425,0.00000676,-0.00076689,-0.00858382,-0.003
 38203,0.00007411,0.00268687,0.00019792,-0.00001612,0.00267916,-0.00055
 621,0.00070816,0.00332712,0.00000024,0.00010767,0.00000533,-0.00000044
 ,0.00001893,0.00002555,-0.00002412,-0.00004665,0.00000905,0.00002414,-
 0.00004719,0.00000945,-0.00220646,-0.00383137,-0.35833389,-0.00394522,
 -0.00006673,-0.00690263,0.00376746,0.00004201,-0.00660307,0.00238440,0
 .00382332,0.37179023\\-0.00008490,0.00137191,0.00001875,0.00003855,0.0
 0000296,-0.00002193,0.00002778,-0.00000457,0.00001508,0.00000302,0.000
 00431,-0.00001186,-0.00003387,-0.00138156,-0.00005736,0.00004019,0.000
 00541,0.00002434,-0.00000123,0.00000511,0.00003637,0.00001047,-0.00000
 358,-0.00000339\\\@


 THEORY:  SUPPOSITION WHICH HAS SCIENTIFIC BASIS,
          BUT NOT EXPERIMENTALLY PROVEN.
 FACT:    A THEORY WHICH HAS BEEN PROVEN BY ENOUGH 
          MONEY TO PAY FOR THE EXPERIMENTS.

                          --  THE WIZARD OF ID
 Job cpu time:       0 days  0 hours 43 minutes 18.9 seconds.
 File lengths (MBytes):  RWF=    106 Int=      0 D2E=      0 Chk=      7 Scr=      1
 Normal termination of Gaussian 09 at Sat May 27 09:12:01 2023.
