 Entering Gaussian System, Link 0=g09
 Input=geom.com
 Output=geom.log
 Initial command:
 /software/cinetica/g09d1/g09d01/d01/build-node-6-2-59348/src/main/l1.exe "/scratch/cc/140707/Gau-173209.inp" -scrdir="/scratch/cc/140707/"
 Entering Link 1 = /software/cinetica/g09d1/g09d01/d01/build-node-6-2-59348/src/main/l1.exe PID=    173210.
  
 Copyright (c) 1988,1990,1992,1993,1995,1998,2003,2009,2013,
            Gaussian, Inc.  All Rights Reserved.
  
 This is part of the Gaussian(R) 09 program.  It is based on
 the Gaussian(R) 03 system (copyright 2003, Gaussian, Inc.),
 the Gaussian(R) 98 system (copyright 1998, Gaussian, Inc.),
 the Gaussian(R) 94 system (copyright 1995, Gaussian, Inc.),
 the Gaussian 92(TM) system (copyright 1992, Gaussian, Inc.),
 the Gaussian 90(TM) system (copyright 1990, Gaussian, Inc.),
 the Gaussian 88(TM) system (copyright 1988, Gaussian, Inc.),
 the Gaussian 86(TM) system (copyright 1986, Carnegie Mellon
 University), and the Gaussian 82(TM) system (copyright 1983,
 Carnegie Mellon University). Gaussian is a federally registered
 trademark of Gaussian, Inc.
  
 This software contains proprietary and confidential information,
 including trade secrets, belonging to Gaussian, Inc.
  
 This software is provided under written license and may be
 used, copied, transmitted, or stored only in accord with that
 written license.
  
 The following legend is applicable only to US Government
 contracts under FAR:
  
                    RESTRICTED RIGHTS LEGEND
  
 Use, reproduction and disclosure by the US Government is
 subject to restrictions as set forth in subparagraphs (a)
 and (c) of the Commercial Computer Software - Restricted
 Rights clause in FAR 52.227-19.
  
 Gaussian, Inc.
 340 Quinnipiac St., Bldg. 40, Wallingford CT 06492
  
  
 ---------------------------------------------------------------
 Warning -- This program may not be used in any manner that
 competes with the business of Gaussian, Inc. or will provide
 assistance to any competitor of Gaussian, Inc.  The licensee
 of this program is prohibited from giving any competitor of
 Gaussian, Inc. access to this program.  By using this program,
 the user acknowledges that Gaussian, Inc. is engaged in the
 business of creating and licensing software in the field of
 computational chemistry and represents and warrants to the
 licensee that it is not a competitor of Gaussian, Inc. and that
 it will not use this program in any manner prohibited above.
 ---------------------------------------------------------------
  

 Cite this work as:
 Gaussian 09, Revision D.01,
 M. J. Frisch, G. W. Trucks, H. B. Schlegel, G. E. Scuseria, 
 M. A. Robb, J. R. Cheeseman, G. Scalmani, V. Barone, B. Mennucci, 
 G. A. Petersson, H. Nakatsuji, M. Caricato, X. Li, H. P. Hratchian, 
 A. F. Izmaylov, J. Bloino, G. Zheng, J. L. Sonnenberg, M. Hada, 
 M. Ehara, K. Toyota, R. Fukuda, J. Hasegawa, M. Ishida, T. Nakajima, 
 Y. Honda, O. Kitao, H. Nakai, T. Vreven, J. A. Montgomery, Jr., 
 J. E. Peralta, F. Ogliaro, M. Bearpark, J. J. Heyd, E. Brothers, 
 K. N. Kudin, V. N. Staroverov, T. Keith, R. Kobayashi, J. Normand, 
 K. Raghavachari, A. Rendell, J. C. Burant, S. S. Iyengar, J. Tomasi, 
 M. Cossi, N. Rega, J. M. Millam, M. Klene, J. E. Knox, J. B. Cross, 
 V. Bakken, C. Adamo, J. Jaramillo, R. Gomperts, R. E. Stratmann, 
 O. Yazyev, A. J. Austin, R. Cammi, C. Pomelli, J. W. Ochterski, 
 R. L. Martin, K. Morokuma, V. G. Zakrzewski, G. A. Voth, 
 P. Salvador, J. J. Dannenberg, S. Dapprich, A. D. Daniels, 
 O. Farkas, J. B. Foresman, J. V. Ortiz, J. Cioslowski, 
 and D. J. Fox, Gaussian, Inc., Wallingford CT, 2013.
 
 ******************************************
 Gaussian 09:  EM64L-G09RevD.01 24-Apr-2013
                 3-Jun-2023 
 ******************************************
 %mem=400MW
 %chk=tmp
 %NProcShared= 32
 Will use up to   32 processors via shared memory.
 ----------------------------------------------------------------------
 # uwb97xd/aug-cc-pvtz opt=(noeig,intern,maxcyc=50) # int=ultrafine nos
 ym iop(7/33=1) guess=(mix,always)
 ----------------------------------------------------------------------
 1/6=50,10=7,11=1,14=-1,18=40,26=4,38=1/1,3;
 2/12=2,15=1,17=6,18=5,29=3,40=1/2;
 3/5=16,6=1,7=10,11=2,16=1,25=1,30=1,71=1,74=-58,75=-5,116=2/1,2,3;
 4/13=-1/1;
 5/5=2,38=5/2;
 6/7=2,8=2,9=2,10=2,28=1/1;
 7/29=1,30=1,33=1/1,2,3,16;
 1/6=50,10=7,11=1,14=-1,18=40,26=4/3(2);
 2/15=1,29=3/2;
 99//99;
 2/15=1,29=3/2;
 3/5=16,6=1,7=10,11=2,16=1,25=1,30=1,71=1,74=-58,75=-5,116=2/1,2,3;
 4/13=-1/1;
 5/5=2,38=5/2;
 7/30=1,33=1/1,2,3,16;
 1/6=50,11=1,14=-1,18=40,26=4/3(-5);
 2/15=1,29=3/2;
 6/7=2,8=2,9=2,10=2,19=2,28=1/1;
 99/9=1/99;
 ------
 geom 0
 ------
 Symbolic Z-matrix:
 Charge =  0 Multiplicity = 1
 C1
 H2                   C1   R1
 H3                   C1   R2       H2   A2
 H4                   C1   R3       H2   A3       H3   D3       0
 H21                  1    rts      2    aabs1    3    babs1    0
       Variables:
  BABS1               102.4061                   
  AABS1                97.2825                   
       Constants:
  R3                    1.0782                   
  A2                  119.9721                   
  A3                  120.0207                   
  D3                  179.8076                   
  R2                    1.0782                   
  R1                    1.0782                   
  RTS                   2.2                      
 

 GradGradGradGradGradGradGradGradGradGradGradGradGradGradGradGradGradGrad
 Berny optimization.
 Initialization pass.
                       ----------------------------
                       !    Initial Parameters    !
                       ! (Angstroms and Degrees)  !
 ----------------------                            ----------------------
 !      Name          Value   Derivative information (Atomic Units)     !
 ------------------------------------------------------------------------
 !      BABS1      102.4061   estimate D2E/DX2                          !
 !      AABS1       97.2825   estimate D2E/DX2                          !
 !       R3          1.0782   Frozen                                    !
 !       A2        119.9721   Frozen                                    !
 !       A3        120.0207   Frozen                                    !
 !       D3        179.8076   Frozen                                    !
 !       R2          1.0782   Frozen                                    !
 !       R1          1.0782   Frozen                                    !
 !       RTS         2.2      Frozen                                    !
 ------------------------------------------------------------------------
 Trust Radius=3.00D-01 FncErr=1.00D-07 GrdErr=1.00D-06
 Number of steps in this run=     50 maximum allowed number of steps=    100.
 GradGradGradGradGradGradGradGradGradGradGradGradGradGradGradGradGradGrad

 ---------------------------------------------------------------------------------------------------
                            Z-MATRIX (ANGSTROMS AND DEGREES)
   CD    Cent   Atom    N1       Length/X        N2       Alpha/Y        N3        Beta/Z          J
 ---------------------------------------------------------------------------------------------------
      1      1  C 
      2      2  H        1   1.078200(     1)
      3      3  H        1   1.078200(     2)      2  119.972(     5)
      4      4  H        1   1.078200(     3)      2  120.021(     6)      3  179.808(     8)      0
      5      5  H        1   2.200000(     4)      2   97.282(     7)      3  102.406(     9)      0
 ---------------------------------------------------------------------------------------------------
                         Z-Matrix orientation:                         
 ---------------------------------------------------------------------
 Center     Atomic      Atomic             Coordinates (Angstroms)
 Number     Number       Type             X           Y           Z
 ---------------------------------------------------------------------
      1          6           0        0.000000    0.000000    0.000000
      2          1           0        0.000000    0.000000    1.078200
      3          1           0        0.934011    0.000000   -0.538645
      4          1           0       -0.933548   -0.003135   -0.539437
      5          1           0       -0.468834   -2.131296   -0.278876
 ---------------------------------------------------------------------
                    Distance matrix (angstroms):
                    1          2          3          4          5
     1  C    0.000000
     2  H    1.078200   0.000000
     3  H    1.078200   1.867235   0.000000
     4  H    1.078200   1.867692   1.867562   0.000000
     5  H    2.200000   2.569802   2.564737   2.193837   0.000000
 Symmetry turned off by external request.
 Stoichiometry    CH4
 Framework group  C1[X(CH4)]
 Deg. of freedom     9
 Full point group                 C1      NOp   1
 Rotational constants (GHZ):    151.0151025     79.8598984     77.8031030
 Standard basis: Aug-CC-pVTZ (5D, 7F)
   138 basis functions,   180 primitive gaussians,   155 cartesian basis functions
     5 alpha electrons        5 beta electrons
       nuclear repulsion energy        11.7811003930 Hartrees.
 NAtoms=    5 NActive=    5 NUniq=    5 SFac= 1.00D+00 NAtFMM=   60 NAOKFM=F Big=F
 Integral buffers will be    131072 words long.
 Raffenetti 2 integral format.
 Two-electron integral symmetry is turned off.
 Nuclear repulsion after empirical dispersion term =       11.7803258965 Hartrees.
 One-electron integrals computed using PRISM.
 NBasis=   138 RedAO= T EigKep=  8.93D-05  NBF=   138
 NBsUse=   138 1.00D-06 EigRej= -1.00D+00 NBFU=   138
 ExpMin= 2.53D-02 ExpMax= 8.24D+03 ExpMxC= 2.81D+02 IAcc=3 IRadAn=         5 AccDes= 0.00D+00
 Harris functional with IExCor= 4639 and IRadAn=       5 diagonalized for initial guess.
 HarFok:  IExCor= 4639 AccDes= 0.00D+00 IRadAn=         5 IDoV= 1 UseB2=F ITyADJ=14
 ICtDFT=  3500011 ScaDFX=  1.000000  1.000000  1.000000  1.000000
 FoFCou: FMM=F IPFlag=           0 FMFlag=      100000 FMFlg1=           0
         NFxFlg=           0 DoJE=T BraDBF=F KetDBF=T FulRan=T
         wScrn=  0.000000 ICntrl=     500 IOpCl=  0 I1Cent=   200000004 NGrid=           0
         NMat0=    1 NMatS0=      1 NMatT0=    0 NMatD0=    1 NMtDS0=    0 NMtDT0=    0
 Symmetry not used in FoFCou.
 Mixing orbitals, IMix= 1 IMixAn=  0 NRI=1 NE=    5 Coef=  7.07106781D-01  7.07106781D-01
 Mixing orbitals, IMix= 1 IMixAn=  0 NRI=1 NE=    5 Coef= -7.07106781D-01  7.07106781D-01
 Initial guess <Sx>= 0.0000 <Sy>= 0.0000 <Sz>= 0.0000 <S**2>= 1.0000 S= 0.6180
 Keep R1 and R2 ints in memory in canonical form, NReq=186089953.
 Requested convergence on RMS density matrix=1.00D-08 within 128 cycles.
 Requested convergence on MAX density matrix=1.00D-06.
 Requested convergence on             energy=1.00D-06.
 No special actions if energy rises.
 SCF Done:  E(UwB97XD) =  -40.3626293522     A.U. after   14 cycles
            NFock= 14  Conv=0.79D-08     -V/T= 2.0104
 <Sx>= 0.0000 <Sy>= 0.0000 <Sz>= 0.0000 <S**2>= 0.4741 S= 0.3509
 <L.S>=  0.00000000000    
 Annihilation of the first spin contaminant:
 S**2 before annihilation     0.4741,   after     0.0051

 **********************************************************************

            Population analysis using the SCF density.

 **********************************************************************

 Alpha  occ. eigenvalues --  -10.32788  -0.80038  -0.52516  -0.52428  -0.33373
 Alpha virt. eigenvalues --   -0.02064   0.03763   0.04995   0.05192   0.09043
 Alpha virt. eigenvalues --    0.11012   0.12572   0.12579   0.13752   0.18745
 Alpha virt. eigenvalues --    0.19367   0.20810   0.21111   0.28081   0.29921
 Alpha virt. eigenvalues --    0.31818   0.31891   0.32279   0.32433   0.33249
 Alpha virt. eigenvalues --    0.33873   0.37283   0.37940   0.38906   0.39085
 Alpha virt. eigenvalues --    0.39975   0.40338   0.44677   0.45029   0.59409
 Alpha virt. eigenvalues --    0.60000   0.66197   0.68067   0.69446   0.72766
 Alpha virt. eigenvalues --    0.73263   0.78736   0.79857   0.80188   0.80751
 Alpha virt. eigenvalues --    0.83605   0.85195   0.87090   0.87673   0.89997
 Alpha virt. eigenvalues --    0.93449   0.94183   0.95485   0.98041   0.99085
 Alpha virt. eigenvalues --    1.04125   1.04189   1.04804   1.07950   1.09487
 Alpha virt. eigenvalues --    1.11233   1.11818   1.14678   1.16458   1.23934
 Alpha virt. eigenvalues --    1.27314   1.36220   1.38029   1.43133   1.47554
 Alpha virt. eigenvalues --    1.49296   1.49834   1.50249   1.56551   1.57560
 Alpha virt. eigenvalues --    1.59495   1.62896   1.67197   1.78470   1.79005
 Alpha virt. eigenvalues --    1.94116   1.96332   1.98990   2.05262   2.06152
 Alpha virt. eigenvalues --    2.10498   2.73293   2.78085   2.84736   2.85128
 Alpha virt. eigenvalues --    2.98408   3.02951   3.15898   3.33069   3.34027
 Alpha virt. eigenvalues --    3.38250   3.38966   3.39728   3.41630   3.43888
 Alpha virt. eigenvalues --    3.45222   3.49940   3.66507   3.69703   3.71379
 Alpha virt. eigenvalues --    3.72866   3.80937   3.81575   3.87704   3.93679
 Alpha virt. eigenvalues --    3.99327   4.02562   4.07621   4.07682   4.09839
 Alpha virt. eigenvalues --    4.13645   4.15248   4.22362   4.47458   4.55565
 Alpha virt. eigenvalues --    4.58209   4.59099   4.59732   4.66517   4.78689
 Alpha virt. eigenvalues --    4.81038   5.03721   5.03838   5.10664   5.10962
 Alpha virt. eigenvalues --    5.17057   5.20815   5.35299   6.07487   6.21321
 Alpha virt. eigenvalues --    6.21544   6.39261  16.06413
  Beta  occ. eigenvalues --  -10.32056  -0.76931  -0.51716  -0.51695  -0.36388
  Beta virt. eigenvalues --   -0.00402   0.04194   0.05103   0.05166   0.06745
  Beta virt. eigenvalues --    0.12589   0.12761   0.12802   0.14247   0.19013
  Beta virt. eigenvalues --    0.19516   0.21173   0.21373   0.28545   0.30172
  Beta virt. eigenvalues --    0.32030   0.32103   0.32488   0.32918   0.33716
  Beta virt. eigenvalues --    0.33895   0.37547   0.37884   0.38993   0.39030
  Beta virt. eigenvalues --    0.40180   0.40591   0.44999   0.45186   0.57433
  Beta virt. eigenvalues --    0.60312   0.66350   0.69033   0.69995   0.73178
  Beta virt. eigenvalues --    0.73610   0.79355   0.79860   0.80954   0.81073
  Beta virt. eigenvalues --    0.84067   0.85518   0.86733   0.87414   0.90222
  Beta virt. eigenvalues --    0.93334   0.94473   0.95505   0.96662   0.98350
  Beta virt. eigenvalues --    1.03903   1.04148   1.04907   1.08161   1.09450
  Beta virt. eigenvalues --    1.11258   1.12006   1.15051   1.16589   1.23926
  Beta virt. eigenvalues --    1.27260   1.36157   1.38361   1.43345   1.47401
  Beta virt. eigenvalues --    1.49674   1.50050   1.50373   1.57069   1.58100
  Beta virt. eigenvalues --    1.60268   1.62731   1.68697   1.78871   1.79419
  Beta virt. eigenvalues --    1.95169   1.96188   2.00041   2.05498   2.06540
  Beta virt. eigenvalues --    2.11366   2.65171   2.80012   2.86017   2.88347
  Beta virt. eigenvalues --    2.99636   3.04738   3.16415   3.35162   3.35927
  Beta virt. eigenvalues --    3.40297   3.40578   3.41865   3.42253   3.45471
  Beta virt. eigenvalues --    3.46939   3.50512   3.66471   3.69649   3.70895
  Beta virt. eigenvalues --    3.72812   3.74628   3.74753   3.83028   3.88500
  Beta virt. eigenvalues --    3.95222   3.95668   4.00611   4.04064   4.08316
  Beta virt. eigenvalues --    4.14166   4.16183   4.21000   4.45922   4.50684
  Beta virt. eigenvalues --    4.58374   4.59112   4.59833   4.65649   4.78334
  Beta virt. eigenvalues --    4.82551   5.04018   5.04106   5.12733   5.12791
  Beta virt. eigenvalues --    5.17453   5.21311   5.36088   6.08254   6.21683
  Beta virt. eigenvalues --    6.21866   6.39860  16.08156
          Condensed to atoms (all electrons):
               1          2          3          4          5
     1  C    5.874890   0.341542   0.341296   0.325330   0.156141
     2  H    0.341542   0.276194   0.009502   0.010281  -0.002015
     3  H    0.341296   0.009502   0.276225   0.010329  -0.002062
     4  H    0.325330   0.010281   0.010329   0.277769  -0.007738
     5  H    0.156141  -0.002015  -0.002062  -0.007738   0.929710
          Atomic-Atomic Spin Densities.
               1          2          3          4          5
     1  C    0.672509   0.011842   0.011788   0.003799  -0.000082
     2  H    0.011842  -0.020499   0.000401  -0.000235   0.007648
     3  H    0.011788   0.000401  -0.020581  -0.000254   0.007768
     4  H    0.003799  -0.000235  -0.000254  -0.027011   0.016601
     5  H   -0.000082   0.007648   0.007768   0.016601  -0.722972
 Mulliken charges and spin densities:
               1          2
     1  C   -1.039199   0.699857
     2  H    0.364495  -0.000843
     3  H    0.364710  -0.000878
     4  H    0.384029  -0.007099
     5  H   -0.074035  -0.691036
 Sum of Mulliken charges =  -0.00000   0.00000
 Mulliken charges and spin densities with hydrogens summed into heavy atoms:
               1          2
     1  C   -0.000000   0.000000
 Electronic spatial extent (au):  <R**2>=             51.4131
 Charge=             -0.0000 electrons
 Dipole moment (field-independent basis, Debye):
    X=              0.1691    Y=              1.0120    Z=              0.1006  Tot=              1.0309
 Quadrupole moment (field-independent basis, Debye-Ang):
   XX=             -8.6282   YY=            -11.9108   ZZ=             -8.6145
   XY=             -0.1622   XZ=             -0.0123   YZ=             -0.0969
 Traceless Quadrupole moment (field-independent basis, Debye-Ang):
   XX=              1.0896   YY=             -2.1929   ZZ=              1.1033
   XY=             -0.1622   XZ=             -0.0123   YZ=             -0.0969
 Octapole moment (field-independent basis, Debye-Ang**2):
  XXX=              2.3341  YYY=             13.3829  ZZZ=              2.4163  XYY=              1.0768
  XXY=              3.7975  XXZ=             -0.5650  XZZ=              0.7769  YZZ=              3.7955
  YYZ=              0.6407  XYZ=              0.0033
 Hexadecapole moment (field-independent basis, Debye-Ang**3):
 XXXX=            -18.7869 YYYY=            -61.0723 ZZZZ=            -17.4820 XXXY=             -4.8229
 XXXZ=             -0.5950 YYYX=             -4.9436 YYYZ=             -2.9409 ZZZX=             -0.6081
 ZZZY=             -2.8903 XXYY=            -13.6211 XXZZ=             -6.0393 YYZZ=            -13.3984
 XXYZ=             -0.9353 YYXZ=             -0.2047 ZZXY=             -1.6074
 N-N= 1.178032589654D+01 E-N=-1.162316545227D+02  KE= 3.994687674864D+01
                          Isotropic Fermi Contact Couplings
        Atom                 a.u.       MegaHertz       Gauss      10(-4) cm-1
     1  C(13)             -0.01072      -6.02406      -2.14953      -2.00941
     2  H(1)              -0.01024     -22.88442      -8.16573      -7.63342
     3  H(1)              -0.01026     -22.93356      -8.18326      -7.64981
     4  H(1)              -0.01274     -28.47537     -10.16072      -9.49836
     5  H(1)              -0.20718    -463.02960    -165.22047    -154.45005
 --------------------------------------------------------
       Center         ----  Spin Dipole Couplings  ----
                      3XX-RR        3YY-RR        3ZZ-RR
 --------------------------------------------------------
     1   Atom       -0.389762      0.776130     -0.386368
     2   Atom       -0.048550     -0.003325      0.051874
     3   Atom        0.025084     -0.003377     -0.021708
     4   Atom        0.029880     -0.010284     -0.019596
     5   Atom       -0.012495      0.026899     -0.014405
 --------------------------------------------------------
                        XY            XZ            YZ
 --------------------------------------------------------
     1   Atom       -0.013030     -0.003068     -0.007685
     2   Atom       -0.002424     -0.001999     -0.006978
     3   Atom       -0.007288     -0.044493      0.001343
     4   Atom        0.004691      0.042974      0.002631
     5   Atom        0.011050      0.001759      0.006577
 --------------------------------------------------------


 ---------------------------------------------------------------------------------
              Anisotropic Spin Dipole Couplings in Principal Axis System
 ---------------------------------------------------------------------------------

       Atom             a.u.   MegaHertz   Gauss  10(-4) cm-1        Axes

              Baa    -0.3918   -52.571   -18.759   -17.536  0.8613  0.0130  0.5079
     1 C(13)  Bbb    -0.3846   -51.604   -18.414   -17.213 -0.5079  0.0000  0.8614
              Bcc     0.7763   104.176    37.172    34.749 -0.0112  0.9999 -0.0066
 
              Baa    -0.0487   -26.003    -9.279    -8.674  0.9981  0.0569  0.0238
     2 H(1)   Bbb    -0.0040    -2.153    -0.768    -0.718 -0.0594  0.9908  0.1215
              Bcc     0.0528    28.156    10.047     9.392 -0.0166 -0.1227  0.9923
 
              Baa    -0.0487   -26.002    -9.278    -8.673  0.5196  0.0582  0.8525
     3 H(1)   Bbb    -0.0041    -2.177    -0.777    -0.726  0.0748  0.9907 -0.1133
              Bcc     0.0528    28.179    10.055     9.399  0.8512 -0.1226 -0.5104
 
              Baa    -0.0444   -23.713    -8.461    -7.910 -0.5006  0.0021  0.8656
     4 H(1)   Bbb    -0.0107    -5.723    -2.042    -1.909 -0.0699  0.9966 -0.0428
              Bcc     0.0552    29.436    10.503     9.819  0.8628  0.0819  0.4988
 
              Baa    -0.0155    -8.244    -2.942    -2.750 -0.5059 -0.0020  0.8626
     5 H(1)   Bbb    -0.0154    -8.196    -2.924    -2.734  0.8255 -0.2911  0.4835
              Bcc     0.0308    16.440     5.866     5.484  0.2502  0.9567  0.1489
 

 ---------------------------------------------------------------------------------

 DipInt: DoE/N= T T RetVal/Mat= T F Init=T NMatP=  1 IDeriv=0 Min/MaxMlt=  1  1
 Entering OneElI...
 Multipole integrals L=1 to 1 MinM= 0 MaxM= 0.
 Requested accuracy = 0.1000D-12
 PrsmSu:  NPrtUS=   1 ThrOK=F IAlg=1 NPAlg=1 LenDen=           0.
 Prism:   IPart=     0 DynPar=F LinDyn=F Incr=          12.
 PRISM was handed   419323248 working-precision words and  1275 shell-pairs
 IPart=  0 NShTot=        1275 NBatch=          38 AvBLen=        33.6
 PrSmSu:  NxtVal=             13.
 Entering OneElI...
 Calculate overlap and kinetic energy integrals
    NBasis = 155  MinDer = 1  MaxDer = 1
 Requested accuracy = 0.1000D-12
 PrsmSu:  NPrtUS=  32 ThrOK=T IAlg=1 NPAlg=1 LenDen=           0.
 Prism:   IPart=     0 DynPar=F LinDyn=F Incr=           1.
 PRISM was handed    13082577 working-precision words and  1275 shell-pairs
 PRISM was handed    13082577 working-precision words and  1275 shell-pairs
 PRISM was handed    13082577 working-precision words and  1275 shell-pairs
 PRISM was handed    13082577 working-precision words and  1275 shell-pairs
 PRISM was handed    13082577 working-precision words and  1275 shell-pairs
 PRISM was handed    13082577 working-precision words and  1275 shell-pairs
 PRISM was handed    13082577 working-precision words and  1275 shell-pairs
 PRISM was handed    13082577 working-precision words and  1275 shell-pairs
 PRISM was handed    13082577 working-precision words and  1275 shell-pairs
 PRISM was handed    13082577 working-precision words and  1275 shell-pairs
 PRISM was handed    13082577 working-precision words and  1275 shell-pairs
 PRISM was handed    13082577 working-precision words and  1275 shell-pairs
 PRISM was handed    13082577 working-precision words and  1275 shell-pairs
 PRISM was handed    13082577 working-precision words and  1275 shell-pairs
 PRISM was handed    13082577 working-precision words and  1275 shell-pairs
 PRISM was handed    13082577 working-precision words and  1275 shell-pairs
 PRISM was handed    13082577 working-precision words and  1275 shell-pairs
 PRISM was handed    13082577 working-precision words and  1275 shell-pairs
 PRISM was handed    13082577 working-precision words and  1275 shell-pairs
 PRISM was handed    13082577 working-precision words and  1275 shell-pairs
 PRISM was handed    13082577 working-precision words and  1275 shell-pairs
 PRISM was handed    13082577 working-precision words and  1275 shell-pairs
 PRISM was handed    13082577 working-precision words and  1275 shell-pairs
 PRISM was handed    13082577 working-precision words and  1275 shell-pairs
 PRISM was handed    13082577 working-precision words and  1275 shell-pairs
 PRISM was handed    13082577 working-precision words and  1275 shell-pairs
 PRISM was handed    13082577 working-precision words and  1275 shell-pairs
 PRISM was handed    13082577 working-precision words and  1275 shell-pairs
 PRISM was handed    13082577 working-precision words and  1275 shell-pairs
 PRISM was handed    13082577 working-precision words and  1275 shell-pairs
 PRISM was handed    13082577 working-precision words and  1275 shell-pairs
 PRISM was handed    13082577 working-precision words and  1275 shell-pairs
 IPart= 23 NShTot=          34 NBatch=          11 AvBLen=         3.1
 IPart= 19 NShTot=          35 NBatch=          12 AvBLen=         2.9
 IPart= 21 NShTot=          35 NBatch=          12 AvBLen=         2.9
 IPart= 29 NShTot=          31 NBatch=          11 AvBLen=         2.8
 IPart=  8 NShTot=          45 NBatch=          20 AvBLen=         2.3
 IPart= 14 NShTot=          40 NBatch=          17 AvBLen=         2.4
 IPart= 27 NShTot=          32 NBatch=          11 AvBLen=         2.9
 IPart=  6 NShTot=          46 NBatch=          21 AvBLen=         2.2
 IPart=  0 NShTot=          67 NBatch=          38 AvBLen=         1.8
 IPart= 16 NShTot=          36 NBatch=          13 AvBLen=         2.8
 IPart= 12 NShTot=          40 NBatch=          17 AvBLen=         2.4
 IPart= 31 NShTot=          29 NBatch=           9 AvBLen=         3.2
 IPart=  4 NShTot=          48 NBatch=          21 AvBLen=         2.3
 IPart= 10 NShTot=          45 NBatch=          20 AvBLen=         2.3
 IPart=  9 NShTot=          45 NBatch=          20 AvBLen=         2.3
 IPart= 17 NShTot=          36 NBatch=          13 AvBLen=         2.8
 IPart= 18 NShTot=          35 NBatch=          12 AvBLen=         2.9
 IPart=  1 NShTot=          58 NBatch=          30 AvBLen=         1.9
 IPart= 25 NShTot=          32 NBatch=          11 AvBLen=         2.9
 IPart= 13 NShTot=          40 NBatch=          17 AvBLen=         2.4
 IPart= 22 NShTot=          34 NBatch=          11 AvBLen=         3.1
 IPart=  2 NShTot=          54 NBatch=          27 AvBLen=         2.0
 IPart= 30 NShTot=          29 NBatch=           9 AvBLen=         3.2
 IPart=  7 NShTot=          46 NBatch=          21 AvBLen=         2.2
 IPart= 26 NShTot=          32 NBatch=          11 AvBLen=         2.9
 IPart= 20 NShTot=          35 NBatch=          12 AvBLen=         2.9
 IPart= 24 NShTot=          32 NBatch=          11 AvBLen=         2.9
 IPart=  5 NShTot=          46 NBatch=          21 AvBLen=         2.2
 IPart= 15 NShTot=          37 NBatch=          14 AvBLen=         2.6
 IPart=  3 NShTot=          49 NBatch=          22 AvBLen=         2.2
 IPart= 28 NShTot=          31 NBatch=          11 AvBLen=         2.8
 IPart= 11 NShTot=          41 NBatch=          17 AvBLen=         2.4
 PrSmSu:  NxtVal=             33.
 Entering OneElI...
 Calculate potential energy integrals
    NBasis = 155  MinDer = 1  MaxDer = 1
 Requested accuracy = 0.1000D-12
 PrsmSu:  NPrtUS=  32 ThrOK=T IAlg=1 NPAlg=1 LenDen=           0.
 Prism:   IPart=     0 DynPar=F LinDyn=F Incr=           1.
 PRISM was handed    13083623 working-precision words and  1275 shell-pairs
 PRISM was handed    13083623 working-precision words and  1275 shell-pairs
 PRISM was handed    13083623 working-precision words and  1275 shell-pairs
 PRISM was handed    13083623 working-precision words and  1275 shell-pairs
 PRISM was handed    13083623 working-precision words and  1275 shell-pairs
 PRISM was handed    13083623 working-precision words and  1275 shell-pairs
 PRISM was handed    13083623 working-precision words and  1275 shell-pairs
 PRISM was handed    13083623 working-precision words and  1275 shell-pairs
 PRISM was handed    13083623 working-precision words and  1275 shell-pairs
 PRISM was handed    13083623 working-precision words and  1275 shell-pairs
 PRISM was handed    13083623 working-precision words and  1275 shell-pairs
 PRISM was handed    13083623 working-precision words and  1275 shell-pairs
 PRISM was handed    13083623 working-precision words and  1275 shell-pairs
 PRISM was handed    13083623 working-precision words and  1275 shell-pairs
 PRISM was handed    13083623 working-precision words and  1275 shell-pairs
 PRISM was handed    13083623 working-precision words and  1275 shell-pairs
 PRISM was handed    13083623 working-precision words and  1275 shell-pairs
 PRISM was handed    13083623 working-precision words and  1275 shell-pairs
 PRISM was handed    13083623 working-precision words and  1275 shell-pairs
 PRISM was handed    13083623 working-precision words and  1275 shell-pairs
 PRISM was handed    13083623 working-precision words and  1275 shell-pairs
 PRISM was handed    13083623 working-precision words and  1275 shell-pairs
 PRISM was handed    13083623 working-precision words and  1275 shell-pairs
 PRISM was handed    13083623 working-precision words and  1275 shell-pairs
 PRISM was handed    13083623 working-precision words and  1275 shell-pairs
 PRISM was handed    13083623 working-precision words and  1275 shell-pairs
 PRISM was handed    13083623 working-precision words and  1275 shell-pairs
 PRISM was handed    13083623 working-precision words and  1275 shell-pairs
 PRISM was handed    13083623 working-precision words and  1275 shell-pairs
 PRISM was handed    13083623 working-precision words and  1275 shell-pairs
 PRISM was handed    13083623 working-precision words and  1275 shell-pairs
 PRISM was handed    13083623 working-precision words and  1275 shell-pairs
 IPart= 16 NShTot=         175 NBatch=          35 AvBLen=         5.0
 IPart=  8 NShTot=         220 NBatch=          44 AvBLen=         5.0
 IPart= 29 NShTot=         160 NBatch=          32 AvBLen=         5.0
 IPart= 12 NShTot=         200 NBatch=          40 AvBLen=         5.0
 IPart= 27 NShTot=         160 NBatch=          32 AvBLen=         5.0
 IPart= 23 NShTot=         170 NBatch=          34 AvBLen=         5.0
 IPart=  0 NShTot=         340 NBatch=          68 AvBLen=         5.0
 IPart=  6 NShTot=         230 NBatch=          46 AvBLen=         5.0
 IPart=  4 NShTot=         240 NBatch=          48 AvBLen=         5.0
 IPart= 10 NShTot=         220 NBatch=          44 AvBLen=         5.0
 IPart=  1 NShTot=         305 NBatch=          61 AvBLen=         5.0
 IPart= 30 NShTot=         145 NBatch=          29 AvBLen=         5.0
 IPart=  9 NShTot=         220 NBatch=          44 AvBLen=         5.0
 IPart= 17 NShTot=         175 NBatch=          35 AvBLen=         5.0
 IPart= 13 NShTot=         200 NBatch=          40 AvBLen=         5.0
 IPart= 31 NShTot=         145 NBatch=          29 AvBLen=         5.0
 IPart= 22 NShTot=         170 NBatch=          34 AvBLen=         5.0
 IPart= 19 NShTot=         175 NBatch=          35 AvBLen=         5.0
 IPart= 14 NShTot=         195 NBatch=          39 AvBLen=         5.0
 IPart= 21 NShTot=         175 NBatch=          35 AvBLen=         5.0
 IPart=  7 NShTot=         225 NBatch=          45 AvBLen=         5.0
 IPart= 26 NShTot=         160 NBatch=          32 AvBLen=         5.0
 IPart= 20 NShTot=         175 NBatch=          35 AvBLen=         5.0
 IPart= 24 NShTot=         160 NBatch=          32 AvBLen=         5.0
 IPart= 25 NShTot=         160 NBatch=          32 AvBLen=         5.0
 IPart= 18 NShTot=         175 NBatch=          35 AvBLen=         5.0
 IPart=  2 NShTot=         275 NBatch=          55 AvBLen=         5.0
 IPart= 15 NShTot=         180 NBatch=          36 AvBLen=         5.0
 IPart=  5 NShTot=         230 NBatch=          46 AvBLen=         5.0
 IPart=  3 NShTot=         250 NBatch=          50 AvBLen=         5.0
 IPart= 11 NShTot=         205 NBatch=          41 AvBLen=         5.0
 IPart= 28 NShTot=         160 NBatch=          32 AvBLen=         5.0
 PrSmSu:  NxtVal=             33.
 l701 out
 I=    0 X=   6.652123018543D-02 Y=   3.981452716886D-01 Z=   3.958030984116D-02
 I=    1 X=   1.599641592438D-01 Y=   8.044372915264D-01 Z=   9.500892216432D-02
 I=    2 X=   2.132747557990D-02 Y=   2.844567093372D-02 Z=   2.384726685997D+00
 I=    3 X=   2.076455750103D+00 Y=   2.831331934040D-02 Z=  -1.172082686801D+00
 I=    4 X=  -2.021197862931D+00 Y=  -2.345262795344D-02 Z=  -1.167076572121D+00
 I=    5 X=  -2.365495219956D-01 Y=  -8.377436538471D-01 Z=  -1.405763492402D-01
 ICntrl=      2127.
 Calling FoFJK, ICntrl=      2127 FMM=F ISym2X=0 I1Cent= 0 IOpClX= 1 NMat=1 NMatS=1 NMatT=0.
 FoFJK:  IHMeth= 1 ICntrl=    2127 DoSepK=T KAlg= 0 I1Cent=   0 FoldK=F
 IRaf=         1 NMat=   1 IRICut=       1 DoRegI=T DoRafI=F ISym2E= 0.
 FoFCou: FMM=F IPFlag=           0 FMFlag=      100000 FMFlg1=         800
         NFxFlg=           0 DoJE=F BraDBF=F KetDBF=F FulRan=T
         wScrn=  0.000000 ICntrl=    2527 IOpCl=  0 I1Cent=           0 NGrid=           0
         NMat0=    1 NMatS0=      1 NMatT0=    0 NMatD0=    1 NMtDS0=    0 NMtDT0=    0
 Symmetry not used in FoFCou.
 FoFCou:  KetSym=F NOpSet=  1 NOpAb=1 NOp=  1.
 FoFCou:  CnvScl= 1.00D+00 Thresh= 1.00D-10 IAcrcy=      10.
 PrismS was handed   419298134 working-precision words and  1275 shell-pairs
 FoFCou: LinMIO=F DoNuc=F BraDBF=F KetDBF=F HaveP=T PDBF=F HaveZ=T HaveW=F
         NIJTC =      10 NIJTAt=       0 NIJTCD=       0 NIJTT =      10
         IJTBeg=       1 IJTEnd=      10 KLTBeg=       1 KLTEnd=      10
         IPTBeg=       1 IPTEnd=      10 IPTBCv=       1 IPTECv=      10
         IZTBeg=       1 IZTEnd=      10 IZTBCv=       1 IZTECv=      10
         IWTBeg=      11 IWTEnd=      10 IWTBCv=      11 IWTECv=      10
         INTBeg=       1 INTEnd=       0 IFTBCv=       1 IFTECv=      10
 NCel replicated for PrismC:     1
 CoulSu:  IncDef=  1024 NBBP=         813450 NTPThr=   100 NPartT=   32 Incr=         254 LDynOK=F.
 CoulSu:  NPrtUS=  32 ThrOK=T IAlg=1 NPAlg=1 LenDen=           0 LWGrdD=           0 DoCopy=F.
 Enter PrismC: JobTyp=21 DoJE=F Cont=F.
 Enter PrismC: JobTyp=21 DoJE=F Cont=F.
 Enter PrismC: JobTyp=21 DoJE=F Cont=F.
 Enter PrismC: JobTyp=21 DoJE=F Cont=F.
 Enter PrismC: JobTyp=21 DoJE=F Cont=F.
 Enter PrismC: JobTyp=21 DoJE=F Cont=F.
 Enter PrismC: JobTyp=21 DoJE=F Cont=F.
 Enter PrismC: JobTyp=21 DoJE=F Cont=F.
 Enter PrismC: JobTyp=21 DoJE=F Cont=F.
 PrismC:  IPart=     0 DynPar=T LinDyn=F Incr=         254 UseFst=F UseS4=T IGathr=2.
 PrismC was handed    13082717 working-precision words and  1275 shell-pairs
 PrismC was handed    13082717 working-precision words and  1275 shell-pairs
 Enter PrismC: JobTyp=21 DoJE=F Cont=F.
 Enter PrismC: JobTyp=21 DoJE=F Cont=F.
 PrismC was handed    13082717 working-precision words and  1275 shell-pairs
 Enter PrismC: JobTyp=21 DoJE=F Cont=F.
 PrismC was handed    13082717 working-precision words and  1275 shell-pairs
 Enter PrismC: JobTyp=21 DoJE=F Cont=F.
 PrismC was handed    13082717 working-precision words and  1275 shell-pairs
 Enter PrismC: JobTyp=21 DoJE=F Cont=F.
 PrismC was handed    13082717 working-precision words and  1275 shell-pairs
 Enter PrismC: JobTyp=21 DoJE=F Cont=F.
 PrismC was handed    13082717 working-precision words and  1275 shell-pairs
 Enter PrismC: JobTyp=21 DoJE=F Cont=F.
 PrismC was handed    13082717 working-precision words and  1275 shell-pairs
 Enter PrismC: JobTyp=21 DoJE=F Cont=F.
 PrismC was handed    13082717 working-precision words and  1275 shell-pairs
 Enter PrismC: JobTyp=21 DoJE=F Cont=F.
 PrismC was handed    13082717 working-precision words and  1275 shell-pairs
 Enter PrismC: JobTyp=21 DoJE=F Cont=F.
 PrismC was handed    13082717 working-precision words and  1275 shell-pairs
 Enter PrismC: JobTyp=21 DoJE=F Cont=F.
 PrismC was handed    13082717 working-precision words and  1275 shell-pairs
 Enter PrismC: JobTyp=21 DoJE=F Cont=F.
 PrismC was handed    13082717 working-precision words and  1275 shell-pairs
 Enter PrismC: JobTyp=21 DoJE=F Cont=F.
 PrismC was handed    13082717 working-precision words and  1275 shell-pairs
 Enter PrismC: JobTyp=21 DoJE=F Cont=F.
 PrismC was handed    13082717 working-precision words and  1275 shell-pairs
 Enter PrismC: JobTyp=21 DoJE=F Cont=F.
 PrismC was handed    13082717 working-precision words and  1275 shell-pairs
 Enter PrismC: JobTyp=21 DoJE=F Cont=F.
 PrismC was handed    13082717 working-precision words and  1275 shell-pairs
 Enter PrismC: JobTyp=21 DoJE=F Cont=F.
 PrismC was handed    13082717 working-precision words and  1275 shell-pairs
 Enter PrismC: JobTyp=21 DoJE=F Cont=F.
 PrismC was handed    13082717 working-precision words and  1275 shell-pairs
 Enter PrismC: JobTyp=21 DoJE=F Cont=F.
 PrismC was handed    13082717 working-precision words and  1275 shell-pairs
 Enter PrismC: JobTyp=21 DoJE=F Cont=F.
 PrismC was handed    13082717 working-precision words and  1275 shell-pairs
 Enter PrismC: JobTyp=21 DoJE=F Cont=F.
 PrismC was handed    13082717 working-precision words and  1275 shell-pairs
 PrismC was handed    13082717 working-precision words and  1275 shell-pairs
 PrismC was handed    13082717 working-precision words and  1275 shell-pairs
 PrismC was handed    13082717 working-precision words and  1275 shell-pairs
 PrismC was handed    13082717 working-precision words and  1275 shell-pairs
 PrismC was handed    13082717 working-precision words and  1275 shell-pairs
 PrismC was handed    13082717 working-precision words and  1275 shell-pairs
 PrismC was handed    13082717 working-precision words and  1275 shell-pairs
 Enter PrismC: JobTyp=21 DoJE=F Cont=F.
 Enter PrismC: JobTyp=21 DoJE=F Cont=F.
 PrismC was handed    13082717 working-precision words and  1275 shell-pairs
 PrismC was handed    13082717 working-precision words and  1275 shell-pairs
 PrismC was handed    13082717 working-precision words and  1275 shell-pairs
 IPart= 19 NShTot=       28736 NShNF=       28736 NShFF=           0 NBatch=         294 AvBLen=        97.7
 IPart=  5 NShTot=       22519 NShNF=       22519 NShFF=           0 NBatch=         256 AvBLen=        88.0
 IPart= 22 NShTot=       25281 NShNF=       25281 NShFF=           0 NBatch=         281 AvBLen=        90.0
 IPart= 20 NShTot=       26378 NShNF=       26378 NShFF=           0 NBatch=         244 AvBLen=       108.1
 IPart= 11 NShTot=       26764 NShNF=       26764 NShFF=           0 NBatch=         241 AvBLen=       111.1
 IPart=  9 NShTot=       24642 NShNF=       24642 NShFF=           0 NBatch=         252 AvBLen=        97.8
 IPart=  0 NShTot=       23233 NShNF=       23233 NShFF=           0 NBatch=         241 AvBLen=        96.4
 IPart=  7 NShTot=       24987 NShNF=       24987 NShFF=           0 NBatch=         250 AvBLen=        99.9
 IPart= 29 NShTot=       24545 NShNF=       24545 NShFF=           0 NBatch=         287 AvBLen=        85.5
 IPart= 23 NShTot=       23056 NShNF=       23056 NShFF=           0 NBatch=         251 AvBLen=        91.9
 IPart= 30 NShTot=       22585 NShNF=       22585 NShFF=           0 NBatch=         250 AvBLen=        90.3
 IPart= 18 NShTot=       25332 NShNF=       25332 NShFF=           0 NBatch=         243 AvBLen=       104.2
 IPart= 15 NShTot=       28430 NShNF=       28430 NShFF=           0 NBatch=         245 AvBLen=       116.0
 IPart= 27 NShTot=       23637 NShNF=       23637 NShFF=           0 NBatch=         250 AvBLen=        94.5
 IPart= 28 NShTot=       30699 NShNF=       30699 NShFF=           0 NBatch=         257 AvBLen=       119.5
 IPart= 13 NShTot=       24736 NShNF=       24736 NShFF=           0 NBatch=         267 AvBLen=        92.6
 IPart=  6 NShTot=       27402 NShNF=       27402 NShFF=           0 NBatch=         245 AvBLen=       111.8
 IPart= 24 NShTot=       26054 NShNF=       26054 NShFF=           0 NBatch=         250 AvBLen=       104.2
 IPart=  3 NShTot=       25436 NShNF=       25436 NShFF=           0 NBatch=         255 AvBLen=        99.7
 IPart= 31 NShTot=       26573 NShNF=       26573 NShFF=           0 NBatch=         272 AvBLen=        97.7
 IPart=  8 NShTot=       24326 NShNF=       24326 NShFF=           0 NBatch=         267 AvBLen=        91.1
 IPart=  1 NShTot=       28413 NShNF=       28413 NShFF=           0 NBatch=         246 AvBLen=       115.5
 IPart=  2 NShTot=       21738 NShNF=       21738 NShFF=           0 NBatch=         268 AvBLen=        81.1
 IPart= 10 NShTot=       23823 NShNF=       23823 NShFF=           0 NBatch=         252 AvBLen=        94.5
 IPart= 17 NShTot=       25370 NShNF=       25370 NShFF=           0 NBatch=         250 AvBLen=       101.5
 IPart= 12 NShTot=       24252 NShNF=       24252 NShFF=           0 NBatch=         279 AvBLen=        86.9
 IPart=  4 NShTot=       24104 NShNF=       24104 NShFF=           0 NBatch=         205 AvBLen=       117.6
 IPart= 14 NShTot=       26318 NShNF=       26318 NShFF=           0 NBatch=         244 AvBLen=       107.9
 IPart= 21 NShTot=       22232 NShNF=       22232 NShFF=           0 NBatch=         258 AvBLen=        86.2
 IPart= 16 NShTot=       24963 NShNF=       24963 NShFF=           0 NBatch=         256 AvBLen=        97.5
 IPart= 25 NShTot=       27239 NShNF=       27239 NShFF=           0 NBatch=         229 AvBLen=       118.9
 IPart= 26 NShTot=       26767 NShNF=       26767 NShFF=           0 NBatch=         284 AvBLen=        94.3
 CoulSu:  NxtVal=         897637.
 FoFCou: FMM=F IPFlag=           0 FMFlag=      100000 FMFlg1=         800
         NFxFlg=           0 DoJE=F BraDBF=F KetDBF=F FulRan=T
         wScrn=  0.000000 ICntrl=    2127 IOpCl=  1 I1Cent=           0 NGrid=           0
         NMat0=    1 NMatS0=      0 NMatT0=    1 NMatD0=    1 NMtDS0=    0 NMtDT0=    0
         CW=    0.222036    0.777964
         WU=    0.000000   12.500000
 Symmetry not used in FoFCou.
 FoFCou:  KetSym=F NOpSet=  1 NOpAb=1 NOp=  1.
 FoFCou:  CnvScl= 1.00D+00 Thresh= 1.00D-10 IAcrcy=      10.
 PrismS was handed   419296894 working-precision words and  1275 shell-pairs
 FoFCou: LinMIO=F DoNuc=F BraDBF=F KetDBF=F HaveP=T PDBF=F HaveZ=T HaveW=F
         NIJTC =      10 NIJTAt=       0 NIJTCD=       0 NIJTT =      10
         IJTBeg=       1 IJTEnd=      10 KLTBeg=       1 KLTEnd=      10
         IPTBeg=       1 IPTEnd=      10 IPTBCv=       1 IPTECv=      10
         IZTBeg=       1 IZTEnd=      10 IZTBCv=       1 IZTECv=      10
         IWTBeg=      11 IWTEnd=      10 IWTBCv=      11 IWTECv=      10
         INTBeg=       1 INTEnd=       0 IFTBCv=       1 IFTECv=      10
 NCel replicated for PrismC:     1
 CoulSu:  IncDef=  1024 NBBP=         813450 NTPThr=   100 NPartT=   32 Incr=         254 LDynOK=F.
 CoulSu:  NPrtUS=  32 ThrOK=T IAlg=1 NPAlg=1 LenDen=           0 LWGrdD=           0 DoCopy=F.
 Enter PrismC: JobTyp=21 DoJE=F Cont=F.
 Linear combination for Coulomb/exchange, wScrn=  0.000000
 CW=    0.222036    0.777964
 Enter PrismC: JobTyp=21 DoJE=F Cont=F.
 Enter PrismC: JobTyp=21 DoJE=F Cont=F.
 Enter PrismC: JobTyp=21 DoJE=F Cont=F.
 Linear combination for Coulomb/exchange, wScrn=  0.000000
 CW=    0.222036    0.777964
 WU=    0.000000   12.500000
 Enter PrismC: JobTyp=21 DoJE=F Cont=F.
 Linear combination for Coulomb/exchange, wScrn=  0.000000
 CW=    0.222036    0.777964
 WU=    0.000000   12.500000
 Enter PrismC: JobTyp=21 DoJE=F Cont=F.
 Linear combination for Coulomb/exchange, wScrn=  0.000000
 CW=    0.222036    0.777964
 WU=    0.000000   12.500000
 Enter PrismC: JobTyp=21 DoJE=F Cont=F.
 Enter PrismC: JobTyp=21 DoJE=F Cont=F.
 WU=    0.000000   12.500000
 PrismC:  IPart=     0 DynPar=T LinDyn=F Incr=         254 UseFst=F UseS4=T IGathr=2.
 PrismC was handed    13082678 working-precision words and  1275 shell-pairs
 Enter PrismC: JobTyp=21 DoJE=F Cont=F.
 Linear combination for Coulomb/exchange, wScrn=  0.000000
 CW=    0.222036    0.777964
 WU=    0.000000   12.500000
 Enter PrismC: JobTyp=21 DoJE=F Cont=F.
 Linear combination for Coulomb/exchange, wScrn=  0.000000
 CW=    0.222036    0.777964
 WU=    0.000000   12.500000
 Enter PrismC: JobTyp=21 DoJE=F Cont=F.
 Linear combination for Coulomb/exchange, wScrn=  0.000000
 CW=    0.222036    0.777964
 WU=    0.000000   12.500000
 Enter PrismC: JobTyp=21 DoJE=F Cont=F.
 Linear combination for Coulomb/exchange, wScrn=  0.000000
 CW=    0.222036    0.777964
 WU=    0.000000   12.500000
 Enter PrismC: JobTyp=21 DoJE=F Cont=F.
 Linear combination for Coulomb/exchange, wScrn=  0.000000
 CW=    0.222036    0.777964
 WU=    0.000000   12.500000
 Enter PrismC: JobTyp=21 DoJE=F Cont=F.
 Linear combination for Coulomb/exchange, wScrn=  0.000000
 CW=    0.222036    0.777964
 WU=    0.000000   12.500000
 Enter PrismC: JobTyp=21 DoJE=F Cont=F.
 Linear combination for Coulomb/exchange, wScrn=  0.000000
 CW=    0.222036    0.777964
 WU=    0.000000   12.500000
 Linear combination for Coulomb/exchange, wScrn=  0.000000
 CW=    0.222036    0.777964
 WU=    0.000000   12.500000
 Enter PrismC: JobTyp=21 DoJE=F Cont=F.
 Linear combination for Coulomb/exchange, wScrn=  0.000000
 CW=    0.222036    0.777964
 WU=    0.000000   12.500000
 Enter PrismC: JobTyp=21 DoJE=F Cont=F.
 Linear combination for Coulomb/exchange, wScrn=  0.000000
 CW=    0.222036    0.777964
 WU=    0.000000   12.500000
 Enter PrismC: JobTyp=21 DoJE=F Cont=F.
 Linear combination for Coulomb/exchange, wScrn=  0.000000
 CW=    0.222036    0.777964
 WU=    0.000000   12.500000
 Linear combination for Coulomb/exchange, wScrn=  0.000000
 CW=    0.222036    0.777964
 WU=    0.000000   12.500000
 PrismC was handed    13082678 working-precision words and  1275 shell-pairs
 Enter PrismC: JobTyp=21 DoJE=F Cont=F.
 Linear combination for Coulomb/exchange, wScrn=  0.000000
 CW=    0.222036    0.777964
 WU=    0.000000   12.500000
 Enter PrismC: JobTyp=21 DoJE=F Cont=F.
 Linear combination for Coulomb/exchange, wScrn=  0.000000
 CW=    0.222036    0.777964
 WU=    0.000000   12.500000
 Enter PrismC: JobTyp=21 DoJE=F Cont=F.
 Linear combination for Coulomb/exchange, wScrn=  0.000000
 CW=    0.222036    0.777964
 WU=    0.000000   12.500000
 Enter PrismC: JobTyp=21 DoJE=F Cont=F.
 Linear combination for Coulomb/exchange, wScrn=  0.000000
 CW=    0.222036    0.777964
 WU=    0.000000   12.500000
 Enter PrismC: JobTyp=21 DoJE=F Cont=F.
 Linear combination for Coulomb/exchange, wScrn=  0.000000
 CW=    0.222036    0.777964
 WU=    0.000000   12.500000
 Enter PrismC: JobTyp=21 DoJE=F Cont=F.
 Linear combination for Coulomb/exchange, wScrn=  0.000000
 CW=    0.222036    0.777964
 WU=    0.000000   12.500000
 Linear combination for Coulomb/exchange, wScrn=  0.000000
 CW=    0.222036    0.777964
 WU=    0.000000   12.500000
 Enter PrismC: JobTyp=21 DoJE=F Cont=F.
 Linear combination for Coulomb/exchange, wScrn=  0.000000
 CW=    0.222036    0.777964
 WU=    0.000000   12.500000
 Enter PrismC: JobTyp=21 DoJE=F Cont=F.
 Linear combination for Coulomb/exchange, wScrn=  0.000000
 CW=    0.222036    0.777964
 WU=    0.000000   12.500000
 Enter PrismC: JobTyp=21 DoJE=F Cont=F.
 Linear combination for Coulomb/exchange, wScrn=  0.000000
 CW=    0.222036    0.777964
 WU=    0.000000   12.500000
 Linear combination for Coulomb/exchange, wScrn=  0.000000
 CW=    0.222036    0.777964
 WU=    0.000000   12.500000
 Enter PrismC: JobTyp=21 DoJE=F Cont=F.
 Linear combination for Coulomb/exchange, wScrn=  0.000000
 CW=    0.222036    0.777964
 WU=    0.000000   12.500000
 PrismC was handed    13082678 working-precision words and  1275 shell-pairs
 PrismC was handed    13082678 working-precision words and  1275 shell-pairs
 Enter PrismC: JobTyp=21 DoJE=F Cont=F.
 Linear combination for Coulomb/exchange, wScrn=  0.000000
 CW=    0.222036    0.777964
 WU=    0.000000   12.500000
 Enter PrismC: JobTyp=21 DoJE=F Cont=F.
 Linear combination for Coulomb/exchange, wScrn=  0.000000
 CW=    0.222036    0.777964
 WU=    0.000000   12.500000
 PrismC was handed    13082678 working-precision words and  1275 shell-pairs
 Enter PrismC: JobTyp=21 DoJE=F Cont=F.
 Linear combination for Coulomb/exchange, wScrn=  0.000000
 CW=    0.222036    0.777964
 WU=    0.000000   12.500000
 PrismC was handed    13082678 working-precision words and  1275 shell-pairs
 PrismC was handed    13082678 working-precision words and  1275 shell-pairs
 PrismC was handed    13082678 working-precision words and  1275 shell-pairs
 PrismC was handed    13082678 working-precision words and  1275 shell-pairs
 PrismC was handed    13082678 working-precision words and  1275 shell-pairs
 PrismC was handed    13082678 working-precision words and  1275 shell-pairs
 PrismC was handed    13082678 working-precision words and  1275 shell-pairs
 PrismC was handed    13082678 working-precision words and  1275 shell-pairs
 PrismC was handed    13082678 working-precision words and  1275 shell-pairs
 PrismC was handed    13082678 working-precision words and  1275 shell-pairs
 PrismC was handed    13082678 working-precision words and  1275 shell-pairs
 PrismC was handed    13082678 working-precision words and  1275 shell-pairs
 Enter PrismC: JobTyp=21 DoJE=F Cont=F.
 Linear combination for Coulomb/exchange, wScrn=  0.000000
 CW=    0.222036    0.777964
 WU=    0.000000   12.500000
 PrismC was handed    13082678 working-precision words and  1275 shell-pairs
 PrismC was handed    13082678 working-precision words and  1275 shell-pairs
 PrismC was handed    13082678 working-precision words and  1275 shell-pairs
 PrismC was handed    13082678 working-precision words and  1275 shell-pairs
 PrismC was handed    13082678 working-precision words and  1275 shell-pairs
 PrismC was handed    13082678 working-precision words and  1275 shell-pairs
 PrismC was handed    13082678 working-precision words and  1275 shell-pairs
 PrismC was handed    13082678 working-precision words and  1275 shell-pairs
 PrismC was handed    13082678 working-precision words and  1275 shell-pairs
 PrismC was handed    13082678 working-precision words and  1275 shell-pairs
 PrismC was handed    13082678 working-precision words and  1275 shell-pairs
 PrismC was handed    13082678 working-precision words and  1275 shell-pairs
 PrismC was handed    13082678 working-precision words and  1275 shell-pairs
 PrismC was handed    13082678 working-precision words and  1275 shell-pairs
 PrismC was handed    13082678 working-precision words and  1275 shell-pairs
 IPart= 18 NShTot=       24125 NShNF=       24125 NShFF=           0 NBatch=         310 AvBLen=        77.8
 IPart=  7 NShTot=       25466 NShNF=       25466 NShFF=           0 NBatch=         297 AvBLen=        85.7
 IPart= 31 NShTot=       28637 NShNF=       28637 NShFF=           0 NBatch=         302 AvBLen=        94.8
 IPart= 14 NShTot=       23709 NShNF=       23709 NShFF=           0 NBatch=         345 AvBLen=        68.7
 IPart= 26 NShTot=       25905 NShNF=       25905 NShFF=           0 NBatch=         343 AvBLen=        75.5
 IPart=  1 NShTot=       26215 NShNF=       26215 NShFF=           0 NBatch=         301 AvBLen=        87.1
 IPart= 21 NShTot=       28097 NShNF=       28097 NShFF=           0 NBatch=         338 AvBLen=        83.1
 IPart= 24 NShTot=       25249 NShNF=       25249 NShFF=           0 NBatch=         315 AvBLen=        80.2
 IPart= 12 NShTot=       25982 NShNF=       25982 NShFF=           0 NBatch=         299 AvBLen=        86.9
 IPart= 17 NShTot=       21311 NShNF=       21311 NShFF=           0 NBatch=         292 AvBLen=        73.0
 IPart= 29 NShTot=       24139 NShNF=       24139 NShFF=           0 NBatch=         252 AvBLen=        95.8
 IPart= 15 NShTot=       21960 NShNF=       21960 NShFF=           0 NBatch=         257 AvBLen=        85.4
 IPart= 19 NShTot=       26416 NShNF=       26416 NShFF=           0 NBatch=         337 AvBLen=        78.4
 IPart= 28 NShTot=       26603 NShNF=       26603 NShFF=           0 NBatch=         256 AvBLen=       103.9
 IPart= 25 NShTot=       21848 NShNF=       21848 NShFF=           0 NBatch=         312 AvBLen=        70.0
 IPart=  9 NShTot=       25516 NShNF=       25516 NShFF=           0 NBatch=         261 AvBLen=        97.8
 IPart=  6 NShTot=       26923 NShNF=       26923 NShFF=           0 NBatch=         309 AvBLen=        87.1
 IPart= 13 NShTot=       22252 NShNF=       22252 NShFF=           0 NBatch=         317 AvBLen=        70.2
 IPart=  4 NShTot=       25474 NShNF=       25474 NShFF=           0 NBatch=         325 AvBLen=        78.4
 IPart= 22 NShTot=       25388 NShNF=       25388 NShFF=           0 NBatch=         349 AvBLen=        72.7
 IPart=  8 NShTot=       24141 NShNF=       24141 NShFF=           0 NBatch=         293 AvBLen=        82.4
 IPart=  2 NShTot=       28676 NShNF=       28676 NShFF=           0 NBatch=         296 AvBLen=        96.9
 IPart= 10 NShTot=       29038 NShNF=       29038 NShFF=           0 NBatch=         330 AvBLen=        88.0
 IPart=  3 NShTot=       25172 NShNF=       25172 NShFF=           0 NBatch=         233 AvBLen=       108.0
 IPart= 11 NShTot=       25210 NShNF=       25210 NShFF=           0 NBatch=         312 AvBLen=        80.8
 IPart= 23 NShTot=       24944 NShNF=       24944 NShFF=           0 NBatch=         353 AvBLen=        70.7
 IPart=  0 NShTot=       21735 NShNF=       21735 NShFF=           0 NBatch=         324 AvBLen=        67.1
 IPart= 16 NShTot=       25190 NShNF=       25190 NShFF=           0 NBatch=         262 AvBLen=        96.1
 IPart= 27 NShTot=       24037 NShNF=       24037 NShFF=           0 NBatch=         258 AvBLen=        93.2
 IPart=  5 NShTot=       28719 NShNF=       28719 NShFF=           0 NBatch=         276 AvBLen=       104.1
 IPart= 30 NShTot=       26421 NShNF=       26421 NShFF=           0 NBatch=         350 AvBLen=        75.5
 IPart= 20 NShTot=       25745 NShNF=       25745 NShFF=           0 NBatch=         279 AvBLen=        92.3
 CoulSu:  NxtVal=         897637.
 ReadGW:  IGet=0 IStart=           1 Next=           1 LGW=           0.
 Remaining memory in FofDFT      399.95 Mw
 CkSvGd:  ISavGI=        -1 IRadAn=       5 IRASav=       5 ISavGd=        -1.
 CalDSu:  NPrtUS=  32 ThrOK=T IAlg=1 NPAlg=2 DoDPD=T LenP=       12090 LenD1P=             0.
 IPart=  0 IRanGd=          0 ScrnBf=T ScrnGd=T RCrit=4.00D+00 DoMicB=T.
 IPart= 30         3005 of         3142 points in       3 batches and        7 microbatches, Max-NSigAt=       5 Max-NSgAt2=       5
 IPart= 10         2556 of         2556 points in       2 batches and        6 microbatches, Max-NSigAt=       5 Max-NSgAt2=       5
 IPart= 14         3307 of         3596 points in       4 batches and        8 microbatches, Max-NSigAt=       5 Max-NSgAt2=       5
 IPart= 20         2812 of         2964 points in       3 batches and       21 microbatches, Max-NSigAt=       5 Max-NSgAt2=       5
 IPart=  4         2620 of         2642 points in       2 batches and        6 microbatches, Max-NSigAt=       5 Max-NSgAt2=       5
 IPart=  8         3311 of         3596 points in       4 batches and        8 microbatches, Max-NSigAt=       5 Max-NSgAt2=       5
 IPart=  2         2584 of         2584 points in       2 batches and        6 microbatches, Max-NSigAt=       5 Max-NSgAt2=       5
 IPart=  0         2822 of         2988 points in       3 batches and       29 microbatches, Max-NSigAt=       5 Max-NSgAt2=       5
 IPart= 12         2642 of         2642 points in       2 batches and        6 microbatches, Max-NSigAt=       5 Max-NSgAt2=       5
 IPart= 16         2661 of         2732 points in       2 batches and        9 microbatches, Max-NSigAt=       5 Max-NSgAt2=       5
 IPart=  7         3584 of         4228 points in       6 batches and       59 microbatches, Max-NSigAt=       5 Max-NSgAt2=       5
 IPart= 26         2724 of         2964 points in       3 batches and       26 microbatches, Max-NSigAt=       5 Max-NSgAt2=       5
 IPart=  9         3233 of         3596 points in       4 batches and       42 microbatches, Max-NSigAt=       5 Max-NSgAt2=       5
 IPart=  1         3178 of         3568 points in       4 batches and       46 microbatches, Max-NSigAt=       5 Max-NSgAt2=       5
 IPart=  6         3168 of         3336 points in       3 batches and        8 microbatches, Max-NSigAt=       5 Max-NSgAt2=       5
 IPart=  5         3474 of         3968 points in       5 batches and       42 microbatches, Max-NSigAt=       5 Max-NSgAt2=       5
 IPart= 18         2806 of         2964 points in       3 batches and       15 microbatches, Max-NSigAt=       5 Max-NSgAt2=       5
 IPart= 28         3102 of         3322 points in       3 batches and       34 microbatches, Max-NSigAt=       5 Max-NSgAt2=       5
 IPart= 13         3918 of         4144 points in       4 batches and       11 microbatches, Max-NSigAt=       5 Max-NSgAt2=       5
 IPart= 27         4210 of         4776 points in       6 batches and       46 microbatches, Max-NSigAt=       5 Max-NSgAt2=       5
 IPart= 25         3982 of         4354 points in       5 batches and       27 microbatches, Max-NSigAt=       5 Max-NSgAt2=       5
 IPart= 19         3870 of         4172 points in       4 batches and       11 microbatches, Max-NSigAt=       5 Max-NSgAt2=       5
 IPart= 22         3414 of         3620 points in       4 batches and       27 microbatches, Max-NSigAt=       5 Max-NSgAt2=       5
 IPart= 11         3869 of         4144 points in       4 batches and       12 microbatches, Max-NSigAt=       5 Max-NSgAt2=       5
 IPart= 31         3486 of         3540 points in       3 batches and       10 microbatches, Max-NSigAt=       5 Max-NSgAt2=       5
 IPart= 23         3540 of         3540 points in       3 batches and        9 microbatches, Max-NSigAt=       5 Max-NSgAt2=       5
 IPart=  3         3925 of         4368 points in       5 batches and       31 microbatches, Max-NSigAt=       5 Max-NSgAt2=       5
 IPart= 17         3619 of         3850 points in       4 batches and       34 microbatches, Max-NSigAt=       5 Max-NSgAt2=       5
 IPart= 21         3701 of         3822 points in       3 batches and       12 microbatches, Max-NSigAt=       5 Max-NSgAt2=       5
 IPart= 24         3470 of         3524 points in       3 batches and       14 microbatches, Max-NSigAt=       5 Max-NSgAt2=       5
 IPart= 29         3851 of         4172 points in       4 batches and       25 microbatches, Max-NSigAt=       5 Max-NSgAt2=       5
 IPart= 15         4550 of         5148 points in       6 batches and       29 microbatches, Max-NSigAt=       5 Max-NSgAt2=       5
 Forces at end of L703
 I=    0 X=   6.652123018543D-02 Y=   3.981452716886D-01 Z=   3.958030984116D-02
 I=    1 X=   9.619035220557D-03 Y=   4.543857198553D-02 Z=   5.723389314740D-03
 I=    2 X=   4.468434618585D-04 Y=  -2.359645854083D-03 Z=   6.789110713923D-05
 I=    3 X=   2.813133328172D-04 Y=  -2.468209833710D-03 Z=   3.563213151612D-04
 I=    4 X=  -2.048830731773D-04 Y=  -1.053037838316D-02 Z=  -1.189143122344D-04
 I=    5 X=  -1.014230894206D-02 Y=  -3.008033791457D-02 Z=  -6.028687424806D-03
 FrcOut:
 IF    =    36 IFX   =    51 IFXYZ =    66
 IFFX  =    81 IFFFX =   201 IFLen =    15
 IFFLen=   120 IFFFLn=     0 IEDerv=   201
 LEDerv=   773 IFroze=  1163 ICStrt= 39591
 FCEst1:  Generated internal coordinate force constants:
                1             2             3             4             5 
      1  0.730628D+00
      2  0.181221D-01  0.239627D+00
      3 -0.485098D-02  0.106853D-01  0.736565D+00
      4 -0.117788D+00 -0.866745D-02  0.403262D-02  0.790053D-01
      5 -0.868067D-02 -0.716153D-01  0.184976D-01  0.817407D-02  0.476251D-01
      6  0.000000D+00  0.000000D+00 -0.362127D+00  0.000000D+00  0.000000D+00
      7 -0.299382D+00 -0.437614D-02  0.104702D+00  0.192851D-01 -0.271787D-04
      8  0.116405D-01 -0.714625D-01 -0.168406D-01 -0.544033D-04  0.108607D-01
      9  0.108799D+00 -0.758822D-02 -0.180574D+00  0.334403D-01 -0.471278D-04
     10 -0.300438D+00 -0.690336D-03 -0.106597D+00  0.193239D-01  0.435945D-04
     11 -0.166690D-01 -0.663844D-01 -0.975710D-02  0.586844D-04  0.108413D-01
     12 -0.106661D+00 -0.523981D-03 -0.177594D+00 -0.334423D-01 -0.138448D-03
     13 -0.130193D-01 -0.438821D-02  0.271350D-02  0.174117D-03  0.490183D-03
     14 -0.441293D-02 -0.301646D-01 -0.258520D-02  0.489098D-03  0.228826D-02
     15  0.271293D-02 -0.257306D-02 -0.162710D-01 -0.403063D-02 -0.183120D-01
                6             7             8             9            10 
      6  0.362127D+00
      7  0.000000D+00  0.291478D+00
      8  0.000000D+00  0.413768D-02  0.475742D-01
      9  0.000000D+00 -0.122504D+00  0.717474D-02  0.149704D+00
     10  0.000000D+00 -0.965396D-02 -0.979016D-04 -0.167400D-01  0.290816D+00
     11  0.000000D+00  0.290287D-04  0.108412D-01  0.503358D-04  0.725145D-03
     12  0.000000D+00  0.167069D-01  0.106426D-03  0.289698D-01  0.123406D+00
     13  0.000000D+00 -0.172720D-02 -0.156258D-01 -0.299497D-02 -0.473594D-04
     14  0.000000D+00  0.236605D-03  0.218648D-02  0.410272D-03  0.194988D-04
     15  0.000000D+00  0.109545D-02  0.955941D-02  0.189952D-02 -0.694004D-04
               11            12            13            14            15 
     11  0.493863D-01
     12  0.562524D-03  0.148557D+00
     13  0.158561D-01 -0.101861D-04  0.146197D-01
     14 -0.468447D-02 -0.652131D-05  0.366773D-02  0.303743D-01
     15  0.914424D-02  0.669634D-04  0.291653D-03  0.218145D-02  0.143046D-01
 Quadrupole    = 8.10092642D-01-1.63040158D+00 8.20308934D-01
                -1.20605780D-01-9.16663642D-03-7.20292675D-02
 -------------------------------------------------------------------
 Center     Atomic                   Forces (Hartrees/Bohr)
 Number     Number              X              Y              Z
 -------------------------------------------------------------------
      1        6          -0.009619035   -0.045438572   -0.005723389
      2        1          -0.000446843    0.002359646   -0.000067891
      3        1          -0.000281313    0.002468210   -0.000356321
      4        1           0.000204883    0.010530378    0.000118914
      5        1           0.010142309    0.030080338    0.006028687
 -------------------------------------------------------------------
 Cartesian Forces:  Max     0.045438572 RMS     0.014959947
 From PutF, contents of force:
   1   -0.1419862157D-01
   2   -0.8231020432D-02
   3   -0.2675074914D-03
   4    0.9152626152D-03
   5    0.3511703958D-04
   6    0.1857596374D-01
   7   -0.6568258329D-04
   8   -0.6789110714D-04
   9   -0.3206655418D-01
 -----------------------------------------------------------------------------------------------
                       Internal Coordinate Forces (Hartree/Bohr or radian)
  Cent   Atom   N1       Length/X         N2         Alpha/Y        N3         Beta/Z          J
 -----------------------------------------------------------------------------------------------
      1  C 
      2  H        1  -0.000068(     1)
      3  H        1  -0.000066(     2)      2   0.000915(     5)
      4  H        1  -0.000268(     3)      2   0.000035(     6)      3   0.018576(     8)     0
      5  H        1  -0.032067(     4)      2  -0.008231(     7)      3  -0.014199(     9)     0
 -----------------------------------------------------------------------------------------------
 Internal  Forces:  Max     0.032066554 RMS     0.013513780
 Force constants in Cartesian coordinates: 
                1             2             3             4             5 
      1  0.730628D+00
      2  0.181221D-01  0.239627D+00
      3 -0.485098D-02  0.106853D-01  0.736565D+00
      4 -0.117788D+00 -0.866745D-02  0.403262D-02  0.790053D-01
      5 -0.868067D-02 -0.716153D-01  0.184976D-01  0.817407D-02  0.476251D-01
      6  0.000000D+00  0.000000D+00 -0.362127D+00  0.000000D+00  0.000000D+00
      7 -0.299382D+00 -0.437614D-02  0.104702D+00  0.192851D-01 -0.271787D-04
      8  0.116405D-01 -0.714625D-01 -0.168406D-01 -0.544033D-04  0.108607D-01
      9  0.108799D+00 -0.758822D-02 -0.180574D+00  0.334403D-01 -0.471278D-04
     10 -0.300438D+00 -0.690336D-03 -0.106597D+00  0.193239D-01  0.435945D-04
     11 -0.166690D-01 -0.663844D-01 -0.975710D-02  0.586844D-04  0.108413D-01
     12 -0.106661D+00 -0.523981D-03 -0.177594D+00 -0.334423D-01 -0.138448D-03
     13 -0.130193D-01 -0.438821D-02  0.271350D-02  0.174117D-03  0.490183D-03
     14 -0.441293D-02 -0.301646D-01 -0.258520D-02  0.489098D-03  0.228826D-02
     15  0.271293D-02 -0.257306D-02 -0.162710D-01 -0.403063D-02 -0.183120D-01
                6             7             8             9            10 
      6  0.362127D+00
      7  0.000000D+00  0.291478D+00
      8  0.000000D+00  0.413768D-02  0.475742D-01
      9  0.000000D+00 -0.122504D+00  0.717474D-02  0.149704D+00
     10  0.000000D+00 -0.965396D-02 -0.979016D-04 -0.167400D-01  0.290816D+00
     11  0.000000D+00  0.290287D-04  0.108412D-01  0.503358D-04  0.725145D-03
     12  0.000000D+00  0.167069D-01  0.106426D-03  0.289698D-01  0.123406D+00
     13  0.000000D+00 -0.172720D-02 -0.156258D-01 -0.299497D-02 -0.473594D-04
     14  0.000000D+00  0.236605D-03  0.218648D-02  0.410272D-03  0.194988D-04
     15  0.000000D+00  0.109545D-02  0.955941D-02  0.189952D-02 -0.694004D-04
               11            12            13            14            15 
     11  0.493863D-01
     12  0.562524D-03  0.148557D+00
     13  0.158561D-01 -0.101861D-04  0.146197D-01
     14 -0.468447D-02 -0.652131D-05  0.366773D-02  0.303743D-01
     15  0.914424D-02  0.669634D-04  0.291653D-03  0.218145D-02  0.143046D-01
 FCInt: Cartesian first derivatives: 
                 1             2             3             4             5 
      1   0.000000D+00  0.000000D+00  0.000000D+00  0.000000D+00  0.000000D+00
      2   0.000000D+00  0.000000D+00  0.000000D+00  0.000000D+00  0.000000D+00
      3   0.000000D+00  0.000000D+00  0.000000D+00  0.000000D+00  0.000000D+00
 FCInt: Cartesian force constants: 
                1             2             3             4             5 
      1  0.730628D+00
      2  0.181221D-01  0.239627D+00
      3 -0.485098D-02  0.106853D-01  0.736565D+00
      4 -0.117788D+00 -0.866745D-02  0.403262D-02  0.790053D-01
      5 -0.868067D-02 -0.716153D-01  0.184976D-01  0.817407D-02  0.476251D-01
      6  0.000000D+00  0.000000D+00 -0.362127D+00  0.000000D+00  0.000000D+00
      7 -0.299382D+00 -0.437614D-02  0.104702D+00  0.192851D-01 -0.271787D-04
      8  0.116405D-01 -0.714625D-01 -0.168406D-01 -0.544033D-04  0.108607D-01
      9  0.108799D+00 -0.758822D-02 -0.180574D+00  0.334403D-01 -0.471278D-04
     10 -0.300438D+00 -0.690336D-03 -0.106597D+00  0.193239D-01  0.435945D-04
     11 -0.166690D-01 -0.663844D-01 -0.975710D-02  0.586844D-04  0.108413D-01
     12 -0.106661D+00 -0.523981D-03 -0.177594D+00 -0.334423D-01 -0.138448D-03
     13 -0.130193D-01 -0.438821D-02  0.271350D-02  0.174117D-03  0.490183D-03
     14 -0.441293D-02 -0.301646D-01 -0.258520D-02  0.489098D-03  0.228826D-02
     15  0.271293D-02 -0.257306D-02 -0.162710D-01 -0.403063D-02 -0.183120D-01
                6             7             8             9            10 
      6  0.362127D+00
      7  0.000000D+00  0.291478D+00
      8  0.000000D+00  0.413768D-02  0.475742D-01
      9  0.000000D+00 -0.122504D+00  0.717474D-02  0.149704D+00
     10  0.000000D+00 -0.965396D-02 -0.979016D-04 -0.167400D-01  0.290816D+00
     11  0.000000D+00  0.290287D-04  0.108412D-01  0.503358D-04  0.725145D-03
     12  0.000000D+00  0.167069D-01  0.106426D-03  0.289698D-01  0.123406D+00
     13  0.000000D+00 -0.172720D-02 -0.156258D-01 -0.299497D-02 -0.473594D-04
     14  0.000000D+00  0.236605D-03  0.218648D-02  0.410272D-03  0.194988D-04
     15  0.000000D+00  0.109545D-02  0.955941D-02  0.189952D-02 -0.694004D-04
               11            12            13            14            15 
     11  0.493863D-01
     12  0.562524D-03  0.148557D+00
     13  0.158561D-01 -0.101861D-04  0.146197D-01
     14 -0.468447D-02 -0.652131D-05  0.366773D-02  0.303743D-01
     15  0.914424D-02  0.669634D-04  0.291653D-03  0.218145D-02  0.143046D-01
 Internal force constants: 
                1             2             3             4             5 
      1  0.362127D+00
      2  0.000000D+00  0.362127D+00
      3  0.000000D+00  0.000000D+00  0.362127D+00
      4  0.000000D+00  0.000000D+00  0.000000D+00  0.314665D-01
      5  0.000000D+00  0.000000D+00  0.000000D+00  0.000000D+00  0.328194D+00
      6  0.000000D+00  0.000000D+00  0.000000D+00  0.000000D+00  0.160343D+00
      7  0.000000D+00  0.000000D+00  0.000000D+00  0.000000D+00  0.187253D-01
      8  0.000000D+00  0.000000D+00  0.000000D+00  0.000000D+00 -0.442110D-03
      9  0.000000D+00  0.000000D+00  0.000000D+00  0.000000D+00 -0.292263D-01
                6             7             8             9 
      6  0.320688D+00
      7  0.660442D-03  0.242395D+00
      8 -0.614913D-03 -0.676135D-01  0.153696D+00
      9 -0.829448D-04 -0.317711D-02 -0.119985D+00  0.234818D+00
 Frcnst in PutFF: 
                1             2             3             4             5 
      1  0.234818D+00
      2 -0.317711D-02  0.242395D+00
      3  0.000000D+00  0.000000D+00  0.362127D+00
      4 -0.292263D-01  0.187253D-01  0.000000D+00  0.328194D+00
      5 -0.829448D-04  0.660442D-03  0.000000D+00  0.160343D+00  0.320688D+00
      6 -0.119985D+00 -0.676135D-01  0.000000D+00 -0.442110D-03 -0.614913D-03
      7  0.000000D+00  0.000000D+00  0.000000D+00  0.000000D+00  0.000000D+00
      8  0.000000D+00  0.000000D+00  0.000000D+00  0.000000D+00  0.000000D+00
      9  0.000000D+00  0.000000D+00  0.000000D+00  0.000000D+00  0.000000D+00
                6             7             8             9 
      6  0.153696D+00
      7  0.000000D+00  0.362127D+00
      8  0.000000D+00  0.000000D+00  0.362127D+00
      9  0.000000D+00  0.000000D+00  0.000000D+00  0.314665D-01
 Force constants in internal coordinates: 
                1             2             3             4             5 
      1  0.362127D+00
      2  0.000000D+00  0.362127D+00
      3  0.000000D+00  0.000000D+00  0.362127D+00
      4  0.000000D+00  0.000000D+00  0.000000D+00  0.314665D-01
      5  0.000000D+00  0.000000D+00  0.000000D+00  0.000000D+00  0.328194D+00
      6  0.000000D+00  0.000000D+00  0.000000D+00  0.000000D+00  0.160343D+00
      7  0.000000D+00  0.000000D+00  0.000000D+00  0.000000D+00  0.187253D-01
      8  0.000000D+00  0.000000D+00  0.000000D+00  0.000000D+00 -0.442110D-03
      9  0.000000D+00  0.000000D+00  0.000000D+00  0.000000D+00 -0.292263D-01
                6             7             8             9 
      6  0.320688D+00
      7  0.660442D-03  0.242395D+00
      8 -0.614913D-03 -0.676135D-01  0.153696D+00
      9 -0.829448D-04 -0.317711D-02 -0.119985D+00  0.234818D+00
 Final forces over variables, Energy=-4.03626294D+01:
 -1.41986216D-02-8.23102043D-03-2.67507491D-04 9.15262615D-04
  3.51170396D-05 1.85759637D-02-6.56825833D-05-6.78911071D-05
 -3.20665542D-02

 GradGradGradGradGradGradGradGradGradGradGradGradGradGradGradGradGradGrad
 Berny optimization.
 Search for a local minimum.
 Step number   1 out of a maximum of   50
 All quantities printed in internal units (Hartrees-Bohrs-Radians)
 Second derivative matrix not updated -- first step.
 The second derivative matrix:
                         BABS1     AABS1      R3        A2        A3
           BABS1        0.23482
           AABS1       -0.00318   0.24240
           R3           0.00000   0.00000   0.36213
           A2          -0.02923   0.01873  -0.00000   0.32819
           A3          -0.00008   0.00066  -0.00000   0.16034   0.32069
           D3          -0.11998  -0.06761  -0.00000  -0.00044  -0.00061
           R2           0.00000  -0.00000   0.00000   0.00000   0.00000
           R1           0.00000   0.00000   0.00000   0.00000   0.00000
           RTS          0.00000  -0.00000   0.00000  -0.00000  -0.00000
                          D3        R2        R1        RTS
           D3           0.15370
           R2          -0.00000   0.36213
           R1           0.00000   0.00000   0.36213
           RTS         -0.00000   0.00000   0.00000   0.03147
 ITU=  0
     Eigenvalues ---    0.23366   0.243551000.000001000.000001000.00000
     Eigenvalues --- 1000.000001000.000001000.000001000.00000
 RFO step:  Lambda=-1.14568312D-03 EMin= 2.33661964D-01
 Linear search not attempted -- first point.
 Variable       Old X    -DE/DX   Delta X   Delta X   Delta X     New X
                                 (Linear)    (Quad)   (Total)
  BABS1       1.78732  -0.01420   0.00000  -0.06064  -0.06064   1.72668
  AABS1       1.69790  -0.00823   0.00000  -0.03459  -0.03459   1.66331
    R3        2.03750  -0.00027   0.00000   0.00000   0.00000   2.03750
    A2        2.09391   0.00092   0.00000   0.00000   0.00000   2.09391
    A3        2.09476   0.00004   0.00000   0.00000   0.00000   2.09476
    D3        3.13823   0.01858   0.00000   0.00000   0.00000   3.13823
    R2        2.03750  -0.00007   0.00000   0.00000   0.00000   2.03750
    R1        2.03750  -0.00007   0.00000   0.00000   0.00000   2.03750
   RTS        4.15740  -0.03207   0.00000   0.00000   0.00000   4.15740
         Item               Value     Threshold  Converged?
 Maximum Force            0.014199     0.000450     NO 
 RMS     Force            0.011605     0.000300     NO 
 Maximum Displacement     0.060639     0.001800     NO 
 RMS     Displacement     0.023270     0.001200     NO 
 Predicted change in Energy=-5.756332D-04
 GradGradGradGradGradGradGradGradGradGradGradGradGradGradGradGradGradGrad

 ---------------------------------------------------------------------------------------------------
                            Z-MATRIX (ANGSTROMS AND DEGREES)
   CD    Cent   Atom    N1       Length/X        N2       Alpha/Y        N3        Beta/Z          J
 ---------------------------------------------------------------------------------------------------
      1      1  C 
      2      2  H        1   1.078200(     1)
      3      3  H        1   1.078200(     2)      2  119.972(     5)
      4      4  H        1   1.078200(     3)      2  120.021(     6)      3  179.808(     8)      0
      5      5  H        1   2.200000(     4)      2   95.301(     7)      3   98.932(     9)      0
 ---------------------------------------------------------------------------------------------------
                         Z-Matrix orientation:                         
 ---------------------------------------------------------------------
 Center     Atomic      Atomic             Coordinates (Angstroms)
 Number     Number       Type             X           Y           Z
 ---------------------------------------------------------------------
      1          6           0        0.000000    0.000000    0.000000
      2          1           0        0.000000    0.000000    1.078200
      3          1           0        0.934011    0.000000   -0.538645
      4          1           0       -0.933548   -0.003135   -0.539437
      5          1           0       -0.340107   -2.164029   -0.203243
 ---------------------------------------------------------------------
                    Distance matrix (angstroms):
                    1          2          3          4          5
     1  C    0.000000
     2  H    1.078200   0.000000
     3  H    1.078200   1.867235   0.000000
     4  H    1.078200   1.867692   1.867562   0.000000
     5  H    2.200000   2.537871   2.533553   2.265979   0.000000
 Symmetry turned off by external request.
 Stoichiometry    CH4
 Framework group  C1[X(CH4)]
 Deg. of freedom     9
 Full point group                 C1      NOp   1
 Rotational constants (GHZ):    147.6350467     79.8601666     78.7320431
 Standard basis: Aug-CC-pVTZ (5D, 7F)
   138 basis functions,   180 primitive gaussians,   155 cartesian basis functions
     5 alpha electrons        5 beta electrons
       nuclear repulsion energy        11.7785514746 Hartrees.
 NAtoms=    5 NActive=    5 NUniq=    5 SFac= 1.00D+00 NAtFMM=   60 NAOKFM=F Big=F
 Integral buffers will be    131072 words long.
 Raffenetti 2 integral format.
 Two-electron integral symmetry is turned off.
 Nuclear repulsion after empirical dispersion term =       11.7777582860 Hartrees.
 One-electron integrals computed using PRISM.
 NBasis=   138 RedAO= T EigKep=  9.13D-05  NBF=   138
 NBsUse=   138 1.00D-06 EigRej= -1.00D+00 NBFU=   138
 ExpMin= 2.53D-02 ExpMax= 8.24D+03 ExpMxC= 2.81D+02 IAcc=3 IRadAn=         5 AccDes= 0.00D+00
 Harris functional with IExCor= 4639 and IRadAn=       5 diagonalized for initial guess.
 HarFok:  IExCor= 4639 AccDes= 0.00D+00 IRadAn=         5 IDoV= 1 UseB2=F ITyADJ=14
 ICtDFT=  3500011 ScaDFX=  1.000000  1.000000  1.000000  1.000000
 FoFCou: FMM=F IPFlag=           0 FMFlag=      100000 FMFlg1=           0
         NFxFlg=           0 DoJE=T BraDBF=F KetDBF=T FulRan=T
         wScrn=  0.000000 ICntrl=     500 IOpCl=  0 I1Cent=   200000004 NGrid=           0
         NMat0=    1 NMatS0=      1 NMatT0=    0 NMatD0=    1 NMtDS0=    0 NMtDT0=    0
 Symmetry not used in FoFCou.
 Mixing orbitals, IMix= 1 IMixAn=  0 NRI=1 NE=    5 Coef=  7.07106781D-01  7.07106781D-01
 Mixing orbitals, IMix= 1 IMixAn=  0 NRI=1 NE=    5 Coef= -7.07106781D-01  7.07106781D-01
 Initial guess <Sx>= 0.0000 <Sy>= 0.0000 <Sz>= 0.0000 <S**2>= 1.0000 S= 0.6180
 Keep R1 and R2 ints in memory in canonical form, NReq=186089981.
 Requested convergence on RMS density matrix=1.00D-08 within 128 cycles.
 Requested convergence on MAX density matrix=1.00D-06.
 Requested convergence on             energy=1.00D-06.
 No special actions if energy rises.
 SCF Done:  E(UwB97XD) =  -40.3636207848     A.U. after   15 cycles
            NFock= 15  Conv=0.20D-08     -V/T= 2.0105
 <Sx>= 0.0000 <Sy>= 0.0000 <Sz>= 0.0000 <S**2>= 0.4614 S= 0.3435
 <L.S>=  0.00000000000    
 Annihilation of the first spin contaminant:
 S**2 before annihilation     0.4614,   after     0.0048
 DipInt: DoE/N= T T RetVal/Mat= T F Init=T NMatP=  1 IDeriv=0 Min/MaxMlt=  1  1
 Entering OneElI...
 Multipole integrals L=1 to 1 MinM= 0 MaxM= 0.
 Requested accuracy = 0.1000D-12
 PrsmSu:  NPrtUS=   1 ThrOK=F IAlg=1 NPAlg=1 LenDen=           0.
 Prism:   IPart=     0 DynPar=F LinDyn=F Incr=          12.
 PRISM was handed   419323248 working-precision words and  1275 shell-pairs
 IPart=  0 NShTot=        1275 NBatch=          38 AvBLen=        33.6
 PrSmSu:  NxtVal=             13.
 Entering OneElI...
 Calculate overlap and kinetic energy integrals
    NBasis = 155  MinDer = 1  MaxDer = 1
 Requested accuracy = 0.1000D-12
 PrsmSu:  NPrtUS=  32 ThrOK=T IAlg=1 NPAlg=1 LenDen=           0.
 Prism:   IPart=     0 DynPar=F LinDyn=F Incr=           1.
 PRISM was handed    13082577 working-precision words and  1275 shell-pairs
 PRISM was handed    13082577 working-precision words and  1275 shell-pairs
 PRISM was handed    13082577 working-precision words and  1275 shell-pairs
 PRISM was handed    13082577 working-precision words and  1275 shell-pairs
 PRISM was handed    13082577 working-precision words and  1275 shell-pairs
 PRISM was handed    13082577 working-precision words and  1275 shell-pairs
 PRISM was handed    13082577 working-precision words and  1275 shell-pairs
 PRISM was handed    13082577 working-precision words and  1275 shell-pairs
 PRISM was handed    13082577 working-precision words and  1275 shell-pairs
 PRISM was handed    13082577 working-precision words and  1275 shell-pairs
 PRISM was handed    13082577 working-precision words and  1275 shell-pairs
 PRISM was handed    13082577 working-precision words and  1275 shell-pairs
 PRISM was handed    13082577 working-precision words and  1275 shell-pairs
[...]
 I=    5 X=   8.217866670175D-05 Y=  -3.492005797349D-02 Z=  -2.595914728946D-05
 FrcOut:
 IF    =    36 IFX   =    51 IFXYZ =    66
 IFFX  =    81 IFFFX =    81 IFLen =    15
 IFFLen=     0 IFFFLn=     0 IEDerv=    81
 LEDerv=   773 IFroze=  1043 ICStrt= 39471
 -------------------------------------------------------------------
 Center     Atomic                   Forces (Hartrees/Bohr)
 Number     Number              X              Y              Z
 -------------------------------------------------------------------
      1        6           0.000156008   -0.050777435    0.000021328
      2        1          -0.000047378    0.005259754   -0.000149912
      3        1          -0.000147377    0.005305806    0.000031505
      4        1           0.000120926    0.005291817    0.000071119
      5        1          -0.000082179    0.034920058    0.000025959
 -------------------------------------------------------------------
 Cartesian Forces:  Max     0.050777435 RMS     0.016086594
 From PutF, contents of force:
   1    0.2939111862D-04
   2   -0.7713880663D-04
   3   -0.1556700622D-03
   4    0.9440579915D-04
   5    0.1591802214D-04
   6    0.9334847655D-02
   7   -0.1434073922D-03
   8   -0.1499116180D-03
   9   -0.3492015867D-01
 -----------------------------------------------------------------------------------------------
                       Internal Coordinate Forces (Hartree/Bohr or radian)
  Cent   Atom   N1       Length/X         N2         Alpha/Y        N3         Beta/Z          J
 -----------------------------------------------------------------------------------------------
      1  C 
      2  H        1  -0.000150(     1)
      3  H        1  -0.000143(     2)      2   0.000094(     5)
      4  H        1  -0.000156(     3)      2   0.000016(     6)      3   0.009335(     8)     0
      5  H        1  -0.034920(     4)      2  -0.000077(     7)      3   0.000029(     9)     0
 -----------------------------------------------------------------------------------------------
 Internal  Forces:  Max     0.034920159 RMS     0.012049159
 Final forces over variables, Energy=-4.03647181D+01:
  2.93911186D-05-7.71388066D-05-1.55670062D-04 9.44057992D-05
  1.59180221D-05 9.33484766D-03-1.43407392D-04-1.49911618D-04
 -3.49201587D-02

 GradGradGradGradGradGradGradGradGradGradGradGradGradGradGradGradGradGrad
 Berny optimization.
 Search for a local minimum.
 Step number   4 out of a maximum of   50
 All quantities printed in internal units (Hartrees-Bohrs-Radians)
 Update second derivatives using D2CorN and points    3    4
 DE= -6.22D-05 DEPred=-6.22D-05 R= 9.99D-01
 TightC=F SS=  1.41D+00  RLast= 4.34D-02 DXNew= 7.0441D-01 1.3022D-01
 Trust test= 9.99D-01 RLast= 4.34D-02 DXMaxT set to 4.19D-01
 The second derivative matrix:
                         BABS1     AABS1      R3        A2        A3
           BABS1        0.11077
           AABS1       -0.07756   0.19780
           R3           0.00037   0.00021   0.36213
           A2          -0.01975   0.02419  -0.00000   0.32819
           A3          -0.00035   0.00050  -0.00000   0.16034   0.32069
           D3          -0.04366  -0.02359  -0.00000  -0.00044  -0.00061
           R2          -0.00023  -0.00013   0.00000   0.00000   0.00000
           R1          -0.00024  -0.00014   0.00000   0.00000   0.00000
           RTS         -0.00521  -0.00289   0.00000  -0.00000  -0.00000
                          D3        R2        R1        RTS
           D3           0.15370
           R2          -0.00000   0.36213
           R1           0.00000   0.00000   0.36213
           RTS         -0.00000   0.00000   0.00000   0.03147
 ITU=  1  1  1  0
     Eigenvalues ---    0.06535   0.243221000.000001000.000001000.00000
     Eigenvalues --- 1000.000001000.000001000.000001000.00000
 RFO step:  Lambda=-2.71861283D-08 EMin= 6.53515050D-02
 Quartic linear search produced a step of  0.00504.
 Variable       Old X    -DE/DX   Delta X   Delta X   Delta X     New X
                                 (Linear)    (Quad)   (Total)
  BABS1       1.56865   0.00003  -0.00019   0.00018  -0.00001   1.56864
  AABS1       1.57101  -0.00008  -0.00011  -0.00028  -0.00040   1.57061
    R3        2.03750  -0.00016   0.00000   0.00000   0.00000   2.03750
    A2        2.09391   0.00009   0.00000   0.00000   0.00000   2.09391
    A3        2.09476   0.00002   0.00000   0.00000   0.00000   2.09476
    D3        3.13823   0.00933   0.00000   0.00000   0.00000   3.13823
    R2        2.03750  -0.00014   0.00000   0.00000   0.00000   2.03750
    R1        2.03750  -0.00015   0.00000   0.00000   0.00000   2.03750
   RTS        4.15740  -0.03492   0.00000   0.00000   0.00000   4.15740
         Item               Value     Threshold  Converged?
 Maximum Force            0.000077     0.000450     YES
 RMS     Force            0.000058     0.000300     YES
 Maximum Displacement     0.000395     0.001800     YES
 RMS     Displacement     0.000132     0.001200     YES
 Predicted change in Energy=-1.504561D-08
 Optimization completed.
    -- Stationary point found.
                       ----------------------------
                       !   Optimized Parameters   !
                       ! (Angstroms and Degrees)  !
 ----------------------                            ----------------------
 !      Name          Value   Derivative information (Atomic Units)     !
 ------------------------------------------------------------------------
 !      BABS1       89.8768   -DE/DX =    0.0                           !
 !      AABS1       90.0121   -DE/DX =   -0.0001                        !
 !       R3          1.0782   -DE/DX =   -0.0002                        !
 !       A2        119.9721   -DE/DX =    0.0001                        !
 !       A3        120.0207   -DE/DX =    0.0                           !
 !       D3        179.8076   -DE/DX =    0.0093                        !
 !       R2          1.0782   -DE/DX =   -0.0001                        !
 !       R1          1.0782   -DE/DX =   -0.0001                        !
 !       RTS         2.2      -DE/DX =   -0.0349                        !
 ------------------------------------------------------------------------
 GradGradGradGradGradGradGradGradGradGradGradGradGradGradGradGradGradGrad

 ---------------------------------------------------------------------------------------------------
                            Z-MATRIX (ANGSTROMS AND DEGREES)
   CD    Cent   Atom    N1       Length/X        N2       Alpha/Y        N3        Beta/Z          J
 ---------------------------------------------------------------------------------------------------
      1      1  C 
      2      2  H        1   1.078200(     1)
      3      3  H        1   1.078200(     2)      2  119.972(     5)
      4      4  H        1   1.078200(     3)      2  120.021(     6)      3  179.808(     8)      0
      5      5  H        1   2.200000(     4)      2   90.012(     7)      3   89.877(     9)      0
 ---------------------------------------------------------------------------------------------------
                         Z-Matrix orientation:                         
 ---------------------------------------------------------------------
 Center     Atomic      Atomic             Coordinates (Angstroms)
 Number     Number       Type             X           Y           Z
 ---------------------------------------------------------------------
      1          6           0        0.000000    0.000000    0.000000
      2          1           0        0.000000    0.000000    1.078200
      3          1           0        0.934011    0.000000   -0.538645
      4          1           0       -0.933548   -0.003135   -0.539437
      5          1           0        0.004732   -2.199995   -0.000466
 ---------------------------------------------------------------------
                    Distance matrix (angstroms):
                    1          2          3          4          5
     1  C    0.000000
     2  H    1.078200   0.000000
     3  H    1.078200   1.867235   0.000000
     4  H    1.078200   1.867692   1.867562   0.000000
     5  H    2.200000   2.450208   2.448096   2.448888   0.000000
 Symmetry turned off by external request.
 Stoichiometry    CH4
 Framework group  C1[X(CH4)]
 Deg. of freedom     9
 Full point group                 C1      NOp   1
 Rotational constants (GHZ):    143.7848480     79.8733635     79.8603846

 **********************************************************************

            Population analysis using the SCF density.

 **********************************************************************

 Alpha  occ. eigenvalues --  -10.32918  -0.80051  -0.52496  -0.52487  -0.33435
 Alpha virt. eigenvalues --   -0.02010   0.03776   0.05056   0.05057   0.09010
 Alpha virt. eigenvalues --    0.10948   0.12553   0.12554   0.13658   0.19275
 Alpha virt. eigenvalues --    0.19279   0.20853   0.20858   0.27636   0.30115
 Alpha virt. eigenvalues --    0.31745   0.31747   0.32604   0.32748   0.32751
 Alpha virt. eigenvalues --    0.33869   0.37287   0.38456   0.38459   0.38796
 Alpha virt. eigenvalues --    0.39960   0.39964   0.44846   0.44847   0.59410
 Alpha virt. eigenvalues --    0.60486   0.67161   0.67176   0.69011   0.72816
 Alpha virt. eigenvalues --    0.72821   0.79464   0.79472   0.79973   0.80774
 Alpha virt. eigenvalues --    0.84889   0.84897   0.88260   0.88369   0.88382
 Alpha virt. eigenvalues --    0.93919   0.94784   0.94795   0.99276   0.99291
 Alpha virt. eigenvalues --    1.02891   1.04333   1.04339   1.08836   1.08847
 Alpha virt. eigenvalues --    1.09133   1.13614   1.13619   1.14581   1.27910
 Alpha virt. eigenvalues --    1.27959   1.30345   1.40807   1.40835   1.47168
 Alpha virt. eigenvalues --    1.49324   1.49326   1.49836   1.58015   1.58027
 Alpha virt. eigenvalues --    1.58781   1.62544   1.66935   1.78829   1.78839
 Alpha virt. eigenvalues --    1.95186   1.96290   1.96312   2.05903   2.05916
 Alpha virt. eigenvalues --    2.10026   2.77444   2.83134   2.83164   2.84917
 Alpha virt. eigenvalues --    2.99077   3.06939   3.06972   3.33507   3.33519
 Alpha virt. eigenvalues --    3.38767   3.38772   3.41356   3.41531   3.43445
 Alpha virt. eigenvalues --    3.43450   3.50341   3.68280   3.69223   3.71523
 Alpha virt. eigenvalues --    3.71530   3.81383   3.81385   3.88655   3.88677
 Alpha virt. eigenvalues --    3.98803   3.98833   4.08973   4.08981   4.12522
 Alpha virt. eigenvalues --    4.14687   4.16639   4.16669   4.45971   4.58301
 Alpha virt. eigenvalues --    4.58629   4.58640   4.63153   4.63186   4.77762
 Alpha virt. eigenvalues --    4.81408   5.03692   5.03747   5.10558   5.10579
 Alpha virt. eigenvalues --    5.17764   5.17779   5.35035   6.09053   6.22221
 Alpha virt. eigenvalues --    6.22259   6.38929  16.03120
  Beta  occ. eigenvalues --  -10.32205  -0.77013  -0.51714  -0.51705  -0.36374
  Beta virt. eigenvalues --   -0.00378   0.04212   0.05098   0.05099   0.06773
  Beta virt. eigenvalues --    0.12505   0.12755   0.12757   0.14152   0.19446
  Beta virt. eigenvalues --    0.19449   0.21171   0.21175   0.28055   0.30499
  Beta virt. eigenvalues --    0.31939   0.31941   0.32916   0.32919   0.33336
  Beta virt. eigenvalues --    0.33881   0.37657   0.38255   0.38615   0.38618
  Beta virt. eigenvalues --    0.40237   0.40241   0.45100   0.45101   0.57395
  Beta virt. eigenvalues --    0.60775   0.67359   0.67374   0.70522   0.73173
  Beta virt. eigenvalues --    0.73178   0.79971   0.80200   0.80208   0.81070
  Beta virt. eigenvalues --    0.85234   0.85241   0.87978   0.87991   0.88806
  Beta virt. eigenvalues --    0.93760   0.94716   0.94723   0.98339   0.98355
  Beta virt. eigenvalues --    1.02844   1.04324   1.04330   1.08833   1.08844
  Beta virt. eigenvalues --    1.09424   1.13662   1.13668   1.14622   1.27983
  Beta virt. eigenvalues --    1.28032   1.30223   1.41091   1.41118   1.46845
  Beta virt. eigenvalues --    1.49738   1.49739   1.49902   1.58512   1.58524
  Beta virt. eigenvalues --    1.59780   1.62267   1.68292   1.79217   1.79227
  Beta virt. eigenvalues --    1.95038   1.97374   1.97396   2.06150   2.06164
  Beta virt. eigenvalues --    2.10856   2.69906   2.84230   2.84258   2.88675
  Beta virt. eigenvalues --    3.00071   3.08394   3.08427   3.35448   3.35457
  Beta virt. eigenvalues --    3.40674   3.40679   3.41770   3.44344   3.44734
  Beta virt. eigenvalues --    3.44740   3.50697   3.68629   3.69415   3.71029
  Beta virt. eigenvalues --    3.71037   3.74874   3.74875   3.83651   3.83668
  Beta virt. eigenvalues --    3.93133   3.93159   4.05535   4.05549   4.09517
  Beta virt. eigenvalues --    4.13131   4.17083   4.17113   4.45002   4.52368
  Beta virt. eigenvalues --    4.58775   4.58784   4.63023   4.63055   4.77426
  Beta virt. eigenvalues --    4.82783   5.03969   5.04027   5.12506   5.12527
  Beta virt. eigenvalues --    5.18228   5.18243   5.35874   6.09743   6.22560
  Beta virt. eigenvalues --    6.22598   6.39515  16.04824
          Condensed to atoms (all electrons):
               1          2          3          4          5
     1  C    5.861248   0.335795   0.335692   0.335732   0.168177
     2  H    0.335795   0.276599   0.010426   0.010408  -0.003639
     3  H    0.335692   0.010426   0.276598   0.010422  -0.003665
     4  H    0.335732   0.010408   0.010422   0.276599  -0.003648
     5  H    0.168177  -0.003639  -0.003665  -0.003648   0.917554
          Atomic-Atomic Spin Densities.
               1          2          3          4          5
     1  C    0.656458   0.009553   0.009502   0.009491  -0.004076
     2  H    0.009553  -0.022302  -0.000326  -0.000321   0.010495
     3  H    0.009502  -0.000326  -0.022350  -0.000327   0.010539
     4  H    0.009491  -0.000321  -0.000327  -0.022345   0.010523
     5  H   -0.004076   0.010495   0.010539   0.010523  -0.699567
 Mulliken charges and spin densities:
               1          2
     1  C   -1.036645   0.680929
     2  H    0.370410  -0.002900
     3  H    0.370526  -0.002962
     4  H    0.370487  -0.002980
     5  H   -0.074779  -0.672086
 Sum of Mulliken charges =  -0.00000   0.00000
 Mulliken charges and spin densities with hydrogens summed into heavy atoms:
               1          2
     1  C   -0.000000   0.000000
 Electronic spatial extent (au):  <R**2>=             51.4126
 Charge=             -0.0000 electrons
 Dipole moment (field-independent basis, Debye):
    X=             -0.0020    Y=              1.0583    Z=             -0.0000  Tot=              1.0583
 Quadrupole moment (field-independent basis, Debye-Ang):
   XX=             -8.6120   YY=            -11.9283   ZZ=             -8.6125
   XY=              0.0060   XZ=              0.0009   YZ=              0.0023
 Traceless Quadrupole moment (field-independent basis, Debye-Ang):
   XX=              1.1056   YY=             -2.2107   ZZ=              1.1051
   XY=              0.0060   XZ=              0.0009   YZ=              0.0023
 Octapole moment (field-independent basis, Debye-Ang**2):
  XXX=             -0.0249  YYY=             13.7109  ZZZ=              1.0327  XYY=             -0.0126
  XXY=              3.9123  XXZ=             -1.0307  XZZ=             -0.0095  YZZ=              3.9145
  YYZ=             -0.0001  XYZ=             -0.0017
 Hexadecapole moment (field-independent basis, Debye-Ang**3):
 XXXX=            -16.7583 YYYY=            -63.4093 ZZZZ=            -16.7582 XXXY=              0.0524
 XXXZ=             -0.0005 YYYX=              0.0481 YYYZ=             -0.0060 ZZZX=              0.0006
 ZZZY=             -0.0256 XXYY=            -13.7830 XXZZ=             -5.5863 YYZZ=            -13.7829
 XXYZ=              0.0205 YYXZ=             -0.0001 ZZXY=              0.0175
 N-N= 1.177504739930D+01 E-N=-1.162121405057D+02  KE= 3.993723189618D+01
                          Isotropic Fermi Contact Couplings
        Atom                 a.u.       MegaHertz       Gauss      10(-4) cm-1
     1  C(13)             -0.00839      -4.71573      -1.68269      -1.57300
     2  H(1)              -0.01064     -23.78048      -8.48547      -7.93232
     3  H(1)              -0.01065     -23.81259      -8.49692      -7.94302
     4  H(1)              -0.01065     -23.80795      -8.49527      -7.94148
     5  H(1)              -0.20130    -449.88814    -160.53127    -150.06653
 --------------------------------------------------------
       Center         ----  Spin Dipole Couplings  ----
                      3XX-RR        3YY-RR        3ZZ-RR
 --------------------------------------------------------
     1   Atom       -0.375387      0.750798     -0.375410
     2   Atom       -0.045886     -0.005612      0.051498
     3   Atom        0.027210     -0.005644     -0.021567
     4   Atom        0.027087     -0.005590     -0.021497
     5   Atom       -0.015240      0.030481     -0.015241
 --------------------------------------------------------
                        XY            XZ            YZ
 --------------------------------------------------------
     1   Atom       -0.001867     -0.000004     -0.001153
     2   Atom       -0.000061      0.000017     -0.006923
     3   Atom       -0.006034     -0.042145      0.003390
     4   Atom        0.006146      0.042177      0.003532
     5   Atom       -0.000102     -0.000000      0.000020
 --------------------------------------------------------


 ---------------------------------------------------------------------------------
              Anisotropic Spin Dipole Couplings in Principal Axis System
 ---------------------------------------------------------------------------------

       Atom             a.u.   MegaHertz   Gauss  10(-4) cm-1        Axes

              Baa    -0.3754   -50.377   -17.976   -16.804  0.2479  0.0014  0.9688
     1 C(13)  Bbb    -0.3754   -50.374   -17.975   -16.803  0.9688  0.0014 -0.2479
              Bcc     0.7508   100.750    35.950    33.607 -0.0017  1.0000 -0.0010
 
              Baa    -0.0459   -24.483    -8.736    -8.167  1.0000  0.0015 -0.0001
     2 H(1)   Bbb    -0.0064    -3.435    -1.226    -1.146 -0.0015  0.9929  0.1186
              Bcc     0.0523    27.918     9.962     9.313  0.0002 -0.1186  0.9929
 
              Baa    -0.0459   -24.475    -8.733    -8.164  0.4997  0.0020  0.8662
     3 H(1)   Bbb    -0.0065    -3.452    -1.232    -1.151  0.1017  0.9930 -0.0609
              Bcc     0.0523    27.927     9.965     9.315  0.8602 -0.1185 -0.4960
 
              Baa    -0.0459   -24.478    -8.734    -8.165 -0.5005  0.0005  0.8657
     4 H(1)   Bbb    -0.0065    -3.446    -1.229    -1.149 -0.1049  0.9926 -0.0612
              Bcc     0.0523    27.923     9.964     9.314  0.8594  0.1215  0.4967
 
              Baa    -0.0152    -8.132    -2.902    -2.712  0.4413  0.0006  0.8974
     5 H(1)   Bbb    -0.0152    -8.132    -2.902    -2.712  0.8974  0.0022 -0.4413
              Bcc     0.0305    16.263     5.803     5.425 -0.0022  1.0000  0.0004
 

 ---------------------------------------------------------------------------------


 Test job not archived.
 1\1\GINC-NODE-6-10\POpt\UwB97XD\Aug-CC-pVTZ\C1H4\CAVALLOTTI\03-Jun-202
 3\1\\# uwb97xd/aug-cc-pvtz opt=(noeig,intern,maxcyc=50) # int=ultrafin
 e nosym iop(7/33=1) guess=(mix,always)\\geom 0\\0,1\C\H,1,R1\H,1,R2,2,
 A2\H,1,R3,2,A3,3,D3,0\H,1,RTS,2,AABS1,3,BABS1,0\\BABS1=89.87676352\AAB
 S1=90.01214914\R3=1.0782\A2=119.9721\A3=120.0207\D3=179.8076\R2=1.0782
 \R1=1.0782\RTS=2.2\\Version=EM64L-G09RevD.01\HF=-40.3647181\S2=0.44701
 5\S2-1=0.\S2A=0.004455\RMSD=3.907e-09\RMSF=1.609e-02\Dipole=-0.0008023
 ,0.4163774,-0.0000088\Quadrupole=0.8219609,-1.6435897,0.8216288,0.0044
 331,0.0006691,0.001722\PG=C01 [X(C1H4)]\\@


 DESK:  A WASTEBASKET WITH DRAWERS.
 Job cpu time:       0 days  0 hours 10 minutes 42.0 seconds.
 File lengths (MBytes):  RWF=     66 Int=      0 D2E=      0 Chk=      3 Scr=      1
 Normal termination of Gaussian 09 at Sat Jun  3 08:59:36 2023.
