 Entering Gaussian System, Link 0=g09
 Input=geom.com
 Output=geom.log
 Initial command:
 /software/cinetica/g09d1/g09d01/d01/build-node-6-2-59348/src/main/l1.exe "/scratch/cc/140683/Gau-53823.inp" -scrdir="/scratch/cc/140683/"
 Entering Link 1 = /software/cinetica/g09d1/g09d01/d01/build-node-6-2-59348/src/main/l1.exe PID=     53824.
  
 Copyright (c) 1988,1990,1992,1993,1995,1998,2003,2009,2013,
            Gaussian, Inc.  All Rights Reserved.
  
 This is part of the Gaussian(R) 09 program.  It is based on
 the Gaussian(R) 03 system (copyright 2003, Gaussian, Inc.),
 the Gaussian(R) 98 system (copyright 1998, Gaussian, Inc.),
 the Gaussian(R) 94 system (copyright 1995, Gaussian, Inc.),
 the Gaussian 92(TM) system (copyright 1992, Gaussian, Inc.),
 the Gaussian 90(TM) system (copyright 1990, Gaussian, Inc.),
 the Gaussian 88(TM) system (copyright 1988, Gaussian, Inc.),
 the Gaussian 86(TM) system (copyright 1986, Carnegie Mellon
 University), and the Gaussian 82(TM) system (copyright 1983,
 Carnegie Mellon University). Gaussian is a federally registered
 trademark of Gaussian, Inc.
  
 This software contains proprietary and confidential information,
 including trade secrets, belonging to Gaussian, Inc.
  
 This software is provided under written license and may be
 used, copied, transmitted, or stored only in accord with that
 written license.
  
 The following legend is applicable only to US Government
 contracts under FAR:
  
                    RESTRICTED RIGHTS LEGEND
  
 Use, reproduction and disclosure by the US Government is
 subject to restrictions as set forth in subparagraphs (a)
 and (c) of the Commercial Computer Software - Restricted
 Rights clause in FAR 52.227-19.
  
 Gaussian, Inc.
 340 Quinnipiac St., Bldg. 40, Wallingford CT 06492
  
  
 ---------------------------------------------------------------
 Warning -- This program may not be used in any manner that
 competes with the business of Gaussian, Inc. or will provide
 assistance to any competitor of Gaussian, Inc.  The licensee
 of this program is prohibited from giving any competitor of
 Gaussian, Inc. access to this program.  By using this program,
 the user acknowledges that Gaussian, Inc. is engaged in the
 business of creating and licensing software in the field of
 computational chemistry and represents and warrants to the
 licensee that it is not a competitor of Gaussian, Inc. and that
 it will not use this program in any manner prohibited above.
 ---------------------------------------------------------------
  

 Cite this work as:
 Gaussian 09, Revision D.01,
 M. J. Frisch, G. W. Trucks, H. B. Schlegel, G. E. Scuseria, 
 M. A. Robb, J. R. Cheeseman, G. Scalmani, V. Barone, B. Mennucci, 
 G. A. Petersson, H. Nakatsuji, M. Caricato, X. Li, H. P. Hratchian, 
 A. F. Izmaylov, J. Bloino, G. Zheng, J. L. Sonnenberg, M. Hada, 
 M. Ehara, K. Toyota, R. Fukuda, J. Hasegawa, M. Ishida, T. Nakajima, 
 Y. Honda, O. Kitao, H. Nakai, T. Vreven, J. A. Montgomery, Jr., 
 J. E. Peralta, F. Ogliaro, M. Bearpark, J. J. Heyd, E. Brothers, 
 K. N. Kudin, V. N. Staroverov, T. Keith, R. Kobayashi, J. Normand, 
 K. Raghavachari, A. Rendell, J. C. Burant, S. S. Iyengar, J. Tomasi, 
 M. Cossi, N. Rega, J. M. Millam, M. Klene, J. E. Knox, J. B. Cross, 
 V. Bakken, C. Adamo, J. Jaramillo, R. Gomperts, R. E. Stratmann, 
 O. Yazyev, A. J. Austin, R. Cammi, C. Pomelli, J. W. Ochterski, 
 R. L. Martin, K. Morokuma, V. G. Zakrzewski, G. A. Voth, 
 P. Salvador, J. J. Dannenberg, S. Dapprich, A. D. Daniels, 
 O. Farkas, J. B. Foresman, J. V. Ortiz, J. Cioslowski, 
 and D. J. Fox, Gaussian, Inc., Wallingford CT, 2013.
 
 ******************************************
 Gaussian 09:  EM64L-G09RevD.01 24-Apr-2013
                 3-Jun-2023 
 ******************************************
 %mem=400MW
 %chk=tmp
 %NProcShared= 32
 Will use up to   32 processors via shared memory.
 ----------------------------------------------------------------------
 # uwb97xd/aug-cc-pvtz opt=(noeig,intern,maxcyc=50) # int=ultrafine nos
 ym freq iop(7/33=1) guess=(mix,always)
 ----------------------------------------------------------------------
 1/6=50,10=7,11=1,14=-1,18=40,26=4,38=1/1,3;
 2/12=2,15=1,17=6,18=5,29=3,40=1/2;
 3/5=16,6=1,7=10,11=2,16=1,25=1,30=1,71=1,74=-58,75=-5,116=2/1,2,3;
 4/13=-1/1;
 5/5=2,38=5/2;
 6/7=2,8=2,9=2,10=2,28=1/1;
 7/29=1,30=1,33=1/1,2,3,16;
 1/6=50,10=7,11=1,14=-1,18=40,26=4/3(2);
 2/15=1,29=3/2;
 99//99;
 2/15=1,29=3/2;
 3/5=16,6=1,7=10,11=2,16=1,25=1,30=1,71=1,74=-58,75=-5,116=2/1,2,3;
 4/13=-1/1;
 5/5=2,38=5/2;
 7/30=1,33=1/1,2,3,16;
 1/6=50,11=1,14=-1,18=40,26=4/3(-5);
 2/15=1,29=3/2;
 6/7=2,8=2,9=2,10=2,19=2,28=1/1;
 99/9=1/99;
 ------
 geom 0
 ------
 Symbolic Z-matrix:
 Charge =  0 Multiplicity = 1
 C1
 H2                   C1   R1
 H3                   C1   R2       H2   A2
 H4                   C1   R3       H2   A3       H3   D3       0
 H21                  C1   BB       H2   ANG1     H3   DH1      0
       Variables:
  R1                    1.0791                   
  R2                    1.0791                   
  R3                    1.0791                   
  A2                  117.1143                   
  A3                  117.1221                   
  D3                  213.1119                   
  DH1                 106.5501                   
  ANG1                 99.8829                   
       Constants:
  BB                    2.2                      
 

 GradGradGradGradGradGradGradGradGradGradGradGradGradGradGradGradGradGrad
 Berny optimization.
 Initialization pass.
                       ----------------------------
                       !    Initial Parameters    !
                       ! (Angstroms and Degrees)  !
 ----------------------                            ----------------------
 !      Name          Value   Derivative information (Atomic Units)     !
 ------------------------------------------------------------------------
 !       R1          1.0791   estimate D2E/DX2                          !
 !       R2          1.0791   estimate D2E/DX2                          !
 !       R3          1.0791   estimate D2E/DX2                          !
 !       A2        117.1143   estimate D2E/DX2                          !
 !       A3        117.1221   estimate D2E/DX2                          !
 !       D3        213.1119   estimate D2E/DX2                          !
 !       DH1       106.5501   estimate D2E/DX2                          !
 !      ANG1        99.8829   estimate D2E/DX2                          !
 !       BB          2.2      Frozen                                    !
 ------------------------------------------------------------------------
 Trust Radius=3.00D-01 FncErr=1.00D-07 GrdErr=1.00D-06
 Number of steps in this run=     50 maximum allowed number of steps=    100.
 GradGradGradGradGradGradGradGradGradGradGradGradGradGradGradGradGradGrad

 ---------------------------------------------------------------------------------------------------
                            Z-MATRIX (ANGSTROMS AND DEGREES)
   CD    Cent   Atom    N1       Length/X        N2       Alpha/Y        N3        Beta/Z          J
 ---------------------------------------------------------------------------------------------------
      1      1  C 
      2      2  H        1   1.079100(     1)
      3      3  H        1   1.079100(     2)      2  117.114(     5)
      4      4  H        1   1.079100(     3)      2  117.122(     6)      3  213.112(     8)      0
      5      5  H        1   2.200000(     4)      2   99.883(     7)      3  106.550(     9)      0
 ---------------------------------------------------------------------------------------------------
                         Z-Matrix orientation:                         
 ---------------------------------------------------------------------
 Center     Atomic      Atomic             Coordinates (Angstroms)
 Number     Number       Type             X           Y           Z
 ---------------------------------------------------------------------
      1          6           0        0.000000    0.000000    0.000000
      2          1           0        0.000000    0.000000    1.079100
      3          1           0        0.960506    0.000000   -0.491818
      4          1           0       -0.804469    0.524665   -0.491949
      5          1           0       -0.617378   -2.077562   -0.377597
 ---------------------------------------------------------------------
                    Distance matrix (angstroms):
                    1          2          3          4          5
     1  C    0.000000
     2  H    1.079100   0.000000
     3  H    1.079100   1.841292   0.000000
     4  H    1.079100   1.841369   1.841306   0.000000
     5  H    2.200000   2.611396   2.611327   2.611448   0.000000
 Symmetry turned off by external request.
 Stoichiometry    CH4
 Framework group  C1[X(CH4)]
 Deg. of freedom     9
 Full point group                 C1      NOp   1
 Rotational constants (GHZ):    147.9014651     77.5278956     77.5258193
 Standard basis: Aug-CC-pVTZ (5D, 7F)
   138 basis functions,   180 primitive gaussians,   155 cartesian basis functions
     5 alpha electrons        5 beta electrons
       nuclear repulsion energy        11.7402817111 Hartrees.
 NAtoms=    5 NActive=    5 NUniq=    5 SFac= 1.00D+00 NAtFMM=   60 NAOKFM=F Big=F
 Integral buffers will be    131072 words long.
 Raffenetti 2 integral format.
 Two-electron integral symmetry is turned off.
 Nuclear repulsion after empirical dispersion term =       11.7395661058 Hartrees.
 One-electron integrals computed using PRISM.
 NBasis=   138 RedAO= T EigKep=  1.05D-04  NBF=   138
 NBsUse=   138 1.00D-06 EigRej= -1.00D+00 NBFU=   138
 ExpMin= 2.53D-02 ExpMax= 8.24D+03 ExpMxC= 2.81D+02 IAcc=3 IRadAn=         5 AccDes= 0.00D+00
 Harris functional with IExCor= 4639 and IRadAn=       5 diagonalized for initial guess.
 HarFok:  IExCor= 4639 AccDes= 0.00D+00 IRadAn=         5 IDoV= 1 UseB2=F ITyADJ=14
 ICtDFT=  3500011 ScaDFX=  1.000000  1.000000  1.000000  1.000000
 FoFCou: FMM=F IPFlag=           0 FMFlag=      100000 FMFlg1=           0
         NFxFlg=           0 DoJE=T BraDBF=F KetDBF=T FulRan=T
         wScrn=  0.000000 ICntrl=     500 IOpCl=  0 I1Cent=   200000004 NGrid=           0
         NMat0=    1 NMatS0=      1 NMatT0=    0 NMatD0=    1 NMtDS0=    0 NMtDT0=    0
 Symmetry not used in FoFCou.
 Mixing orbitals, IMix= 1 IMixAn=  0 NRI=1 NE=    5 Coef=  7.07106781D-01  7.07106781D-01
 Mixing orbitals, IMix= 1 IMixAn=  0 NRI=1 NE=    5 Coef= -7.07106781D-01  7.07106781D-01
 Initial guess <Sx>= 0.0000 <Sy>= 0.0000 <Sz>= 0.0000 <S**2>= 1.0000 S= 0.6180
 Keep R1 and R2 ints in memory in canonical form, NReq=186089897.
 Requested convergence on RMS density matrix=1.00D-08 within 128 cycles.
 Requested convergence on MAX density matrix=1.00D-06.
 Requested convergence on             energy=1.00D-06.
 No special actions if energy rises.
 SCF Done:  E(UwB97XD) =  -40.3666027501     A.U. after   14 cycles
            NFock= 14  Conv=0.74D-08     -V/T= 2.0114
 <Sx>= 0.0000 <Sy>= 0.0000 <Sz>= 0.0000 <S**2>= 0.3947 S= 0.3030
 <L.S>=  0.00000000000    
 Annihilation of the first spin contaminant:
 S**2 before annihilation     0.3947,   after     0.0030

 **********************************************************************

            Population analysis using the SCF density.

 **********************************************************************

 Alpha  occ. eigenvalues --  -10.33070  -0.80007  -0.51994  -0.51993  -0.34241
 Alpha virt. eigenvalues --   -0.01856   0.03745   0.05041   0.05041   0.08996
 Alpha virt. eigenvalues --    0.11227   0.12623   0.12623   0.13708   0.19608
 Alpha virt. eigenvalues --    0.19609   0.20300   0.20300   0.27809   0.30445
 Alpha virt. eigenvalues --    0.31956   0.31956   0.32192   0.32193   0.32544
 Alpha virt. eigenvalues --    0.34273   0.37635   0.38065   0.38066   0.39365
 Alpha virt. eigenvalues --    0.41593   0.41594   0.45852   0.45853   0.58758
 Alpha virt. eigenvalues --    0.59684   0.59685   0.61724   0.69915   0.73846
 Alpha virt. eigenvalues --    0.73846   0.79562   0.81190   0.82696   0.82697
 Alpha virt. eigenvalues --    0.85705   0.85706   0.89668   0.90775   0.90777
 Alpha virt. eigenvalues --    0.94926   0.94927   0.95089   0.96829   0.96830
 Alpha virt. eigenvalues --    1.02811   1.05812   1.05813   1.06517   1.09523
 Alpha virt. eigenvalues --    1.09524   1.13551   1.13552   1.17594   1.25000
 Alpha virt. eigenvalues --    1.25002   1.29285   1.45110   1.45112   1.48376
 Alpha virt. eigenvalues --    1.48377   1.50792   1.51921   1.53563   1.53563
 Alpha virt. eigenvalues --    1.54696   1.60328   1.72010   1.76379   1.76380
 Alpha virt. eigenvalues --    1.89107   1.89109   1.89770   2.05138   2.05140
 Alpha virt. eigenvalues --    2.11968   2.72473   2.85070   2.90062   2.90067
 Alpha virt. eigenvalues --    2.92106   3.05872   3.05873   3.34055   3.34057
 Alpha virt. eigenvalues --    3.36078   3.36330   3.41449   3.41449   3.47385
 Alpha virt. eigenvalues --    3.47387   3.48205   3.69743   3.70740   3.70740
 Alpha virt. eigenvalues --    3.73692   3.81601   3.81601   3.86046   3.86048
 Alpha virt. eigenvalues --    3.99411   3.99412   4.05145   4.05146   4.08835
 Alpha virt. eigenvalues --    4.18788   4.20973   4.20975   4.42842   4.50656
 Alpha virt. eigenvalues --    4.50659   4.58235   4.63834   4.63836   4.68881
 Alpha virt. eigenvalues --    4.83631   4.98646   4.98652   5.07192   5.07193
 Alpha virt. eigenvalues --    5.32076   5.46627   5.46632   5.90941   5.96792
 Alpha virt. eigenvalues --    6.23020   6.23029  16.03841
  Beta  occ. eigenvalues --  -10.32378  -0.77231  -0.51196  -0.51195  -0.36519
  Beta virt. eigenvalues --   -0.00488   0.04061   0.05110   0.05110   0.06727
  Beta virt. eigenvalues --    0.12382   0.12653   0.12653   0.13920   0.19761
  Beta virt. eigenvalues --    0.19762   0.20617   0.20617   0.28021   0.30799
  Beta virt. eigenvalues --    0.31940   0.31941   0.32429   0.32430   0.33345
  Beta virt. eigenvalues --    0.34275   0.37924   0.38447   0.38448   0.38742
  Beta virt. eigenvalues --    0.41795   0.41796   0.45858   0.45859   0.56459
  Beta virt. eigenvalues --    0.60121   0.60122   0.62310   0.71653   0.74111
  Beta virt. eigenvalues --    0.74112   0.79511   0.81172   0.83260   0.83260
  Beta virt. eigenvalues --    0.85747   0.85747   0.90265   0.91029   0.91031
  Beta virt. eigenvalues --    0.94781   0.94878   0.94879   0.95991   0.95992
  Beta virt. eigenvalues --    1.02708   1.05517   1.05518   1.06804   1.09212
  Beta virt. eigenvalues --    1.09213   1.13663   1.13664   1.17429   1.25175
  Beta virt. eigenvalues --    1.25177   1.29181   1.45179   1.45182   1.48865
  Beta virt. eigenvalues --    1.48866   1.50865   1.52546   1.54138   1.54138
  Beta virt. eigenvalues --    1.55632   1.59042   1.73835   1.76911   1.76912
  Beta virt. eigenvalues --    1.89671   1.90001   1.90003   2.05396   2.05398
  Beta virt. eigenvalues --    2.12774   2.64293   2.88017   2.90404   2.90409
  Beta virt. eigenvalues --    2.94546   3.07578   3.07583   3.35786   3.35788
  Beta virt. eigenvalues --    3.36640   3.38366   3.44095   3.44095   3.48456
  Beta virt. eigenvalues --    3.48459   3.49070   3.70277   3.70499   3.70500
  Beta virt. eigenvalues --    3.73921   3.75595   3.75595   3.82537   3.82538
  Beta virt. eigenvalues --    3.95637   3.95637   3.98775   3.98777   4.05194
  Beta virt. eigenvalues --    4.18761   4.21356   4.21358   4.38228   4.50561
  Beta virt. eigenvalues --    4.50564   4.55732   4.64169   4.64171   4.68718
  Beta virt. eigenvalues --    4.84825   4.98985   4.98991   5.08773   5.08774
  Beta virt. eigenvalues --    5.32910   5.47125   5.47130   5.91726   5.97496
  Beta virt. eigenvalues --    6.23524   6.23534  16.05463
          Condensed to atoms (all electrons):
               1          2          3          4          5
     1  C    5.754925   0.347279   0.347206   0.347375   0.190643
     2  H    0.347279   0.285598   0.013010   0.012995  -0.006238
     3  H    0.347206   0.013010   0.285536   0.013003  -0.006245
     4  H    0.347375   0.012995   0.013003   0.285704  -0.006237
     5  H    0.190643  -0.006238  -0.006245  -0.006237   0.882652
          Atomic-Atomic Spin Densities.
               1          2          3          4          5
     1  C    0.577538   0.017788   0.017827   0.017728  -0.009256
     2  H    0.017788  -0.020386  -0.000866  -0.000857   0.009323
     3  H    0.017827  -0.000866  -0.020358  -0.000861   0.009329
     4  H    0.017728  -0.000857  -0.000861  -0.020458   0.009323
     5  H   -0.009256   0.009323   0.009329   0.009323  -0.655293
 Mulliken charges and spin densities:
               1          2
     1  C   -0.987429   0.621625
     2  H    0.347356   0.005001
     3  H    0.347490   0.005072
     4  H    0.347159   0.004876
     5  H   -0.054576  -0.636574
 Sum of Mulliken charges =  -0.00000  -0.00000
 Mulliken charges and spin densities with hydrogens summed into heavy atoms:
               1          2
     1  C   -0.000000  -0.000000
 Electronic spatial extent (au):  <R**2>=             51.1301
 Charge=             -0.0000 electrons
 Dipole moment (field-independent basis, Debye):
    X=              0.3548    Y=              1.1937    Z=              0.2170  Tot=              1.2641
 Quadrupole moment (field-independent basis, Debye-Ang):
   XX=             -8.9290   YY=            -11.0136   ZZ=             -8.8024
   XY=             -0.6797   XZ=             -0.1234   YZ=             -0.4157
 Traceless Quadrupole moment (field-independent basis, Debye-Ang):
   XX=              0.6527   YY=             -1.4319   ZZ=              0.7793
   XY=             -0.6797   XZ=             -0.1234   YZ=             -0.4157
 Octapole moment (field-independent basis, Debye-Ang**2):
  XXX=              3.3482  YYY=             10.5567  ZZZ=              2.8746  XYY=              0.8913
  XXY=              3.7097  XXZ=             -0.1976  XZZ=              1.0285  YZZ=              3.4617
  YYZ=              0.5452  XYZ=              0.2422
 Hexadecapole moment (field-independent basis, Debye-Ang**3):
 XXXX=            -20.5148 YYYY=            -54.9918 ZZZZ=            -18.0904 XXXY=             -6.0976
 XXXZ=             -1.2980 YYYX=             -5.1401 YYYZ=             -3.1438 ZZZX=             -1.0708
 ZZZY=             -3.6038 XXYY=            -12.8659 XXZZ=             -6.5432 YYZZ=            -12.8196
 XXYZ=             -1.3768 YYXZ=             -0.0454 ZZXY=             -2.0458
 N-N= 1.173956610580D+01 E-N=-1.161285954686D+02  KE= 3.991341425784D+01
                          Isotropic Fermi Contact Couplings
        Atom                 a.u.       MegaHertz       Gauss      10(-4) cm-1
     1  C(13)              0.03849      21.63706       7.72064       7.21735
     2  H(1)              -0.00751     -16.79333      -5.99228      -5.60165
     3  H(1)              -0.00751     -16.78934      -5.99086      -5.60032
     4  H(1)              -0.00752     -16.80327      -5.99583      -5.60497
     5  H(1)              -0.19045    -425.65287    -151.88352    -141.98251
 --------------------------------------------------------
       Center         ----  Spin Dipole Couplings  ----
                      3XX-RR        3YY-RR        3ZZ-RR
 --------------------------------------------------------
     1   Atom       -0.262654      0.576241     -0.313587
     2   Atom       -0.039180     -0.007992      0.047172
     3   Atom        0.028005     -0.007993     -0.020012
     4   Atom        0.017159      0.002845     -0.020004
     5   Atom       -0.012115      0.026576     -0.014461
 --------------------------------------------------------
                        XY            XZ            YZ
 --------------------------------------------------------
     1   Atom        0.273559      0.049720      0.167248
     2   Atom        0.010171     -0.001514     -0.005099
     3   Atom        0.000091     -0.035921      0.011377
     4   Atom       -0.016506      0.036301     -0.010094
     5   Atom        0.012611      0.002292      0.007713
 --------------------------------------------------------


 ---------------------------------------------------------------------------------
              Anisotropic Spin Dipole Couplings in Principal Axis System
 ---------------------------------------------------------------------------------

       Atom             a.u.   MegaHertz   Gauss  10(-4) cm-1        Axes

              Baa    -0.3440   -46.159   -16.471   -15.397 -0.2361 -0.1054  0.9660
     1 C(13)  Bbb    -0.3440   -46.158   -16.470   -15.397  0.9303 -0.3117  0.1934
              Bcc     0.6880    92.318    32.941    30.794  0.2807  0.9443  0.1716
 
              Baa    -0.0422   -22.518    -8.035    -7.511  0.9585 -0.2850 -0.0000
     2 H(1)   Bbb    -0.0055    -2.938    -1.048    -0.980  0.2835  0.9537  0.1005
              Bcc     0.0477    25.455     9.083     8.491 -0.0286 -0.0963  0.9949
 
              Baa    -0.0422   -22.518    -8.035    -7.511  0.4369 -0.2849  0.8532
     3 H(1)   Bbb    -0.0055    -2.940    -1.049    -0.981  0.2187  0.9537  0.2065
              Bcc     0.0477    25.458     9.084     8.492  0.8725 -0.0964 -0.4790
 
              Baa    -0.0422   -22.517    -8.035    -7.511 -0.5217  0.0000  0.8531
     4 H(1)   Bbb    -0.0055    -2.935    -1.047    -0.979  0.3379  0.9182  0.2066
              Bcc     0.0477    25.452     9.082     8.490  0.7834 -0.3960  0.4790
 
              Baa    -0.0159    -8.464    -3.020    -2.823  0.8846 -0.1851 -0.4280
     5 H(1)   Bbb    -0.0159    -8.464    -3.020    -2.823  0.3724 -0.2719  0.8874
              Bcc     0.0317    16.927     6.040     5.646  0.2806  0.9444  0.1716
 

 ---------------------------------------------------------------------------------

 DipInt: DoE/N= T T RetVal/Mat= T F Init=T NMatP=  1 IDeriv=0 Min/MaxMlt=  1  1
 Entering OneElI...
 Multipole integrals L=1 to 1 MinM= 0 MaxM= 0.
 Requested accuracy = 0.1000D-12
 PrsmSu:  NPrtUS=   1 ThrOK=F IAlg=1 NPAlg=1 LenDen=           0.
 Prism:   IPart=     0 DynPar=F LinDyn=F Incr=          12.
 PRISM was handed   419323248 working-precision words and  1275 shell-pairs
 IPart=  0 NShTot=        1275 NBatch=          38 AvBLen=        33.6
 PrSmSu:  NxtVal=             13.
 Entering OneElI...
 Calculate overlap and kinetic energy integrals
    NBasis = 155  MinDer = 1  MaxDer = 1
 Requested accuracy = 0.1000D-12
 PrsmSu:  NPrtUS=  32 ThrOK=T IAlg=1 NPAlg=1 LenDen=           0.
 Prism:   IPart=     0 DynPar=F LinDyn=F Incr=           1.
 PRISM was handed    13082602 working-precision words and  1275 shell-pairs
 PRISM was handed    13082602 working-precision words and  1275 shell-pairs
 PRISM was handed    13082602 working-precision words and  1275 shell-pairs
 PRISM was handed    13082602 working-precision words and  1275 shell-pairs
 PRISM was handed    13082602 working-precision words and  1275 shell-pairs
 PRISM was handed    13082602 working-precision words and  1275 shell-pairs
 PRISM was handed    13082602 working-precision words and  1275 shell-pairs
 PRISM was handed    13082602 working-precision words and  1275 shell-pairs
 PRISM was handed    13082602 working-precision words and  1275 shell-pairs
 PRISM was handed    13082602 working-precision words and  1275 shell-pairs
 PRISM was handed    13082602 working-precision words and  1275 shell-pairs
 PRISM was handed    13082602 working-precision words and  1275 shell-pairs
 PRISM was handed    13082602 working-precision words and  1275 shell-pairs
 PRISM was handed    13082602 working-precision words and  1275 shell-pairs
 PRISM was handed    13082602 working-precision words and  1275 shell-pairs
 PRISM was handed    13082602 working-precision words and  1275 shell-pairs
 PRISM was handed    13082602 working-precision words and  1275 shell-pairs
 PRISM was handed    13082602 working-precision words and  1275 shell-pairs
 PRISM was handed    13082602 working-precision words and  1275 shell-pairs
 PRISM was handed    13082602 working-precision words and  1275 shell-pairs
 PRISM was handed    13082602 working-precision words and  1275 shell-pairs
 PRISM was handed    13082602 working-precision words and  1275 shell-pairs
 PRISM was handed    13082602 working-precision words and  1275 shell-pairs
 PRISM was handed    13082602 working-precision words and  1275 shell-pairs
 PRISM was handed    13082602 working-precision words and  1275 shell-pairs
 PRISM was handed    13082602 working-precision words and  1275 shell-pairs
 PRISM was handed    13082602 working-precision words and  1275 shell-pairs
 PRISM was handed    13082602 working-precision words and  1275 shell-pairs
 PRISM was handed    13082602 working-precision words and  1275 shell-pairs
 PRISM was handed    13082602 working-precision words and  1275 shell-pairs
 PRISM was handed    13082602 working-precision words and  1275 shell-pairs
 PRISM was handed    13082602 working-precision words and  1275 shell-pairs
 IPart=  0 NShTot=          68 NBatch=          39 AvBLen=         1.7
 IPart=  2 NShTot=          55 NBatch=          28 AvBLen=         2.0
 IPart=  3 NShTot=          49 NBatch=          22 AvBLen=         2.2
 IPart= 12 NShTot=          40 NBatch=          17 AvBLen=         2.4
 IPart= 22 NShTot=          34 NBatch=          11 AvBLen=         3.1
 IPart= 16 NShTot=          35 NBatch=          12 AvBLen=         2.9
 IPart= 24 NShTot=          32 NBatch=          11 AvBLen=         2.9
 IPart= 30 NShTot=          29 NBatch=           9 AvBLen=         3.2
 IPart= 13 NShTot=          40 NBatch=          17 AvBLen=         2.4
 IPart= 11 NShTot=          41 NBatch=          17 AvBLen=         2.4
 IPart=  5 NShTot=          46 NBatch=          21 AvBLen=         2.2
 IPart= 18 NShTot=          35 NBatch=          12 AvBLen=         2.9
 IPart= 28 NShTot=          31 NBatch=          11 AvBLen=         2.8
 IPart= 23 NShTot=          34 NBatch=          11 AvBLen=         3.1
 IPart=  6 NShTot=          46 NBatch=          21 AvBLen=         2.2
 IPart= 14 NShTot=          40 NBatch=          17 AvBLen=         2.4
 IPart= 26 NShTot=          32 NBatch=          11 AvBLen=         2.9
 IPart= 19 NShTot=          35 NBatch=          12 AvBLen=         2.9
 IPart= 17 NShTot=          35 NBatch=          12 AvBLen=         2.9
 IPart= 10 NShTot=          45 NBatch=          20 AvBLen=         2.3
 IPart= 29 NShTot=          31 NBatch=          11 AvBLen=         2.8
 IPart=  4 NShTot=          48 NBatch=          21 AvBLen=         2.3
 IPart=  8 NShTot=          45 NBatch=          20 AvBLen=         2.3
 IPart= 25 NShTot=          32 NBatch=          11 AvBLen=         2.9
 IPart= 20 NShTot=          35 NBatch=          12 AvBLen=         2.9
 IPart= 31 NShTot=          29 NBatch=           9 AvBLen=         3.2
 IPart= 27 NShTot=          32 NBatch=          11 AvBLen=         2.9
 IPart=  1 NShTot=          59 NBatch=          31 AvBLen=         1.9
 IPart= 21 NShTot=          35 NBatch=          12 AvBLen=         2.9
 IPart= 15 NShTot=          36 NBatch=          13 AvBLen=         2.8
 IPart=  7 NShTot=          46 NBatch=          21 AvBLen=         2.2
 IPart=  9 NShTot=          45 NBatch=          20 AvBLen=         2.3
 PrSmSu:  NxtVal=             33.
 Entering OneElI...
 Calculate potential energy integrals
    NBasis = 155  MinDer = 1  MaxDer = 1
 Requested accuracy = 0.1000D-12
 PrsmSu:  NPrtUS=  32 ThrOK=T IAlg=1 NPAlg=1 LenDen=           0.
 Prism:   IPart=     0 DynPar=F LinDyn=F Incr=           1.
 PRISM was handed    13083664 working-precision words and  1275 shell-pairs
 PRISM was handed    13083664 working-precision words and  1275 shell-pairs
 PRISM was handed    13083664 working-precision words and  1275 shell-pairs
 PRISM was handed    13083664 working-precision words and  1275 shell-pairs
 PRISM was handed    13083664 working-precision words and  1275 shell-pairs
 PRISM was handed    13083664 working-precision words and  1275 shell-pairs
 PRISM was handed    13083664 working-precision words and  1275 shell-pairs
 PRISM was handed    13083664 working-precision words and  1275 shell-pairs
 PRISM was handed    13083664 working-precision words and  1275 shell-pairs
 PRISM was handed    13083664 working-precision words and  1275 shell-pairs
 PRISM was handed    13083664 working-precision words and  1275 shell-pairs
 PRISM was handed    13083664 working-precision words and  1275 shell-pairs
 PRISM was handed    13083664 working-precision words and  1275 shell-pairs
 PRISM was handed    13083664 working-precision words and  1275 shell-pairs
 PRISM was handed    13083664 working-precision words and  1275 shell-pairs
 PRISM was handed    13083664 working-precision words and  1275 shell-pairs
 PRISM was handed    13083664 working-precision words and  1275 shell-pairs
 PRISM was handed    13083664 working-precision words and  1275 shell-pairs
 PRISM was handed    13083664 working-precision words and  1275 shell-pairs
 PRISM was handed    13083664 working-precision words and  1275 shell-pairs
 PRISM was handed    13083664 working-precision words and  1275 shell-pairs
 PRISM was handed    13083664 working-precision words and  1275 shell-pairs
 PRISM was handed    13083664 working-precision words and  1275 shell-pairs
 PRISM was handed    13083664 working-precision words and  1275 shell-pairs
 PRISM was handed    13083664 working-precision words and  1275 shell-pairs
 PRISM was handed    13083664 working-precision words and  1275 shell-pairs
 PRISM was handed    13083664 working-precision words and  1275 shell-pairs
 PRISM was handed    13083664 working-precision words and  1275 shell-pairs
 PRISM was handed    13083664 working-precision words and  1275 shell-pairs
 PRISM was handed    13083664 working-precision words and  1275 shell-pairs
 PRISM was handed    13083664 working-precision words and  1275 shell-pairs
 PRISM was handed    13083664 working-precision words and  1275 shell-pairs
 IPart= 27 NShTot=         160 NBatch=          32 AvBLen=         5.0
 IPart= 15 NShTot=         180 NBatch=          36 AvBLen=         5.0
 IPart=  7 NShTot=         225 NBatch=          45 AvBLen=         5.0
 IPart= 31 NShTot=         145 NBatch=          29 AvBLen=         5.0
 IPart=  9 NShTot=         220 NBatch=          44 AvBLen=         5.0
 IPart= 21 NShTot=         175 NBatch=          35 AvBLen=         5.0
 IPart= 29 NShTot=         160 NBatch=          32 AvBLen=         5.0
 IPart= 25 NShTot=         160 NBatch=          32 AvBLen=         5.0
 IPart= 17 NShTot=         175 NBatch=          35 AvBLen=         5.0
 IPart=  1 NShTot=         305 NBatch=          61 AvBLen=         5.0
 IPart= 23 NShTot=         170 NBatch=          34 AvBLen=         5.0
 IPart=  4 NShTot=         240 NBatch=          48 AvBLen=         5.0
 IPart= 10 NShTot=         220 NBatch=          44 AvBLen=         5.0
 IPart= 20 NShTot=         175 NBatch=          35 AvBLen=         5.0
 IPart=  2 NShTot=         280 NBatch=          56 AvBLen=         5.0
 IPart= 12 NShTot=         200 NBatch=          40 AvBLen=         5.0
 IPart= 19 NShTot=         175 NBatch=          35 AvBLen=         5.0
 IPart=  5 NShTot=         225 NBatch=          45 AvBLen=         5.0
 IPart=  8 NShTot=         220 NBatch=          44 AvBLen=         5.0
 IPart= 16 NShTot=         175 NBatch=          35 AvBLen=         5.0
 IPart= 11 NShTot=         205 NBatch=          41 AvBLen=         5.0
 IPart= 13 NShTot=         200 NBatch=          40 AvBLen=         5.0
 IPart=  3 NShTot=         250 NBatch=          50 AvBLen=         5.0
 IPart= 14 NShTot=         195 NBatch=          39 AvBLen=         5.0
 IPart=  0 NShTot=         340 NBatch=          68 AvBLen=         5.0
 IPart= 28 NShTot=         160 NBatch=          32 AvBLen=         5.0
 IPart= 24 NShTot=         160 NBatch=          32 AvBLen=         5.0
 IPart= 22 NShTot=         170 NBatch=          34 AvBLen=         5.0
 IPart= 30 NShTot=         150 NBatch=          30 AvBLen=         5.0
 IPart= 26 NShTot=         160 NBatch=          32 AvBLen=         5.0
 IPart= 18 NShTot=         175 NBatch=          35 AvBLen=         5.0
 IPart=  6 NShTot=         225 NBatch=          45 AvBLen=         5.0
 PrSmSu:  NxtVal=             33.
 l701 out
 I=    0 X=   1.395954478551D-01 Y=   4.696534661698D-01 Z=   8.535887380013D-02
 I=    1 X=  -7.527663254061D-02 Y=  -2.537072118006D-01 Z=  -4.597947539943D-02
 I=    2 X=   1.009987389877D-04 Y=   6.496839674307D-04 Z=   2.413076398269D+00
 I=    3 X=   2.147808306278D+00 Y=   6.256854603366D-04 Z=  -1.099641074713D+00
 I=    4 X=  -1.798816645699D+00 Y=   1.173909256328D+00 Z=  -1.099976614539D+00
 I=    5 X=  -2.738160267771D-01 Y=  -9.214774139550D-01 Z=  -1.674792336172D-01
 ICntrl=      2127.
 Calling FoFJK, ICntrl=      2127 FMM=F ISym2X=0 I1Cent= 0 IOpClX= 1 NMat=1 NMatS=1 NMatT=0.
 FoFJK:  IHMeth= 1 ICntrl=    2127 DoSepK=T KAlg= 0 I1Cent=   0 FoldK=F
 IRaf=         1 NMat=   1 IRICut=       1 DoRegI=T DoRafI=F ISym2E= 0.
 FoFCou: FMM=F IPFlag=           0 FMFlag=      100000 FMFlg1=         800
         NFxFlg=           0 DoJE=F BraDBF=F KetDBF=F FulRan=T
         wScrn=  0.000000 ICntrl=    2527 IOpCl=  0 I1Cent=           0 NGrid=           0
         NMat0=    1 NMatS0=      1 NMatT0=    0 NMatD0=    1 NMtDS0=    0 NMtDT0=    0
 Symmetry not used in FoFCou.
 FoFCou:  KetSym=F NOpSet=  1 NOpAb=1 NOp=  1.
 FoFCou:  CnvScl= 1.00D+00 Thresh= 1.00D-10 IAcrcy=      10.
 PrismS was handed   419298134 working-precision words and  1275 shell-pairs
 FoFCou: LinMIO=F DoNuc=F BraDBF=F KetDBF=F HaveP=T PDBF=F HaveZ=T HaveW=F
         NIJTC =      10 NIJTAt=       0 NIJTCD=       0 NIJTT =      10
         IJTBeg=       1 IJTEnd=      10 KLTBeg=       1 KLTEnd=      10
         IPTBeg=       1 IPTEnd=      10 IPTBCv=       1 IPTECv=      10
         IZTBeg=       1 IZTEnd=      10 IZTBCv=       1 IZTECv=      10
         IWTBeg=      11 IWTEnd=      10 IWTBCv=      11 IWTECv=      10
         INTBeg=       1 INTEnd=       0 IFTBCv=       1 IFTECv=      10
 NCel replicated for PrismC:     1
 CoulSu:  IncDef=  1024 NBBP=         813450 NTPThr=   100 NPartT=   32 Incr=         254 LDynOK=F.
 CoulSu:  NPrtUS=  32 ThrOK=T IAlg=1 NPAlg=1 LenDen=           0 LWGrdD=           0 DoCopy=F.
 Enter PrismC: JobTyp=21 DoJE=F Cont=F.
 Enter PrismC: JobTyp=21 DoJE=F Cont=F.
 Enter PrismC: JobTyp=21 DoJE=F Cont=F.
 Enter PrismC: JobTyp=21 DoJE=F Cont=F.
 Enter PrismC: JobTyp=21 DoJE=F Cont=F.
 Enter PrismC: JobTyp=21 DoJE=F Cont=F.
 Enter PrismC: JobTyp=21 DoJE=F Cont=F.
 Enter PrismC: JobTyp=21 DoJE=F Cont=F.
 Enter PrismC: JobTyp=21 DoJE=F Cont=F.
 Enter PrismC: JobTyp=21 DoJE=F Cont=F.
 Enter PrismC: JobTyp=21 DoJE=F Cont=F.
 Enter PrismC: JobTyp=21 DoJE=F Cont=F.
 Enter PrismC: JobTyp=21 DoJE=F Cont=F.
 Enter PrismC: JobTyp=21 DoJE=F Cont=F.
 Enter PrismC: JobTyp=21 DoJE=F Cont=F.
 PrismC:  IPart=     0 DynPar=T LinDyn=F Incr=         254 UseFst=F UseS4=T IGathr=2.
 PrismC was handed    13082717 working-precision words and  1275 shell-pairs
 Enter PrismC: JobTyp=21 DoJE=F Cont=F.
 Enter PrismC: JobTyp=21 DoJE=F Cont=F.
 Enter PrismC: JobTyp=21 DoJE=F Cont=F.
 Enter PrismC: JobTyp=21 DoJE=F Cont=F.
 Enter PrismC: JobTyp=21 DoJE=F Cont=F.
 PrismC was handed    13082717 working-precision words and  1275 shell-pairs
 Enter PrismC: JobTyp=21 DoJE=F Cont=F.
 PrismC was handed    13082717 working-precision words and  1275 shell-pairs
 Enter PrismC: JobTyp=21 DoJE=F Cont=F.
 PrismC was handed    13082717 working-precision words and  1275 shell-pairs
 Enter PrismC: JobTyp=21 DoJE=F Cont=F.
 PrismC was handed    13082717 working-precision words and  1275 shell-pairs
 Enter PrismC: JobTyp=21 DoJE=F Cont=F.
 PrismC was handed    13082717 working-precision words and  1275 shell-pairs
 Enter PrismC: JobTyp=21 DoJE=F Cont=F.
 PrismC was handed    13082717 working-precision words and  1275 shell-pairs
 Enter PrismC: JobTyp=21 DoJE=F Cont=F.
 PrismC was handed    13082717 working-precision words and  1275 shell-pairs
 Enter PrismC: JobTyp=21 DoJE=F Cont=F.
 PrismC was handed    13082717 working-precision words and  1275 shell-pairs
 Enter PrismC: JobTyp=21 DoJE=F Cont=F.
 PrismC was handed    13082717 working-precision words and  1275 shell-pairs
 Enter PrismC: JobTyp=21 DoJE=F Cont=F.
 PrismC was handed    13082717 working-precision words and  1275 shell-pairs
 Enter PrismC: JobTyp=21 DoJE=F Cont=F.
 PrismC was handed    13082717 working-precision words and  1275 shell-pairs
 Enter PrismC: JobTyp=21 DoJE=F Cont=F.
 PrismC was handed    13082717 working-precision words and  1275 shell-pairs
 PrismC was handed    13082717 working-precision words and  1275 shell-pairs
 PrismC was handed    13082717 working-precision words and  1275 shell-pairs
 PrismC was handed    13082717 working-precision words and  1275 shell-pairs
 PrismC was handed    13082717 working-precision words and  1275 shell-pairs
 PrismC was handed    13082717 working-precision words and  1275 shell-pairs
 PrismC was handed    13082717 working-precision words and  1275 shell-pairs
 PrismC was handed    13082717 working-precision words and  1275 shell-pairs
 PrismC was handed    13082717 working-precision words and  1275 shell-pairs
 PrismC was handed    13082717 working-precision words and  1275 shell-pairs
 PrismC was handed    13082717 working-precision words and  1275 shell-pairs
 PrismC was handed    13082717 working-precision words and  1275 shell-pairs
 PrismC was handed    13082717 working-precision words and  1275 shell-pairs
 PrismC was handed    13082717 working-precision words and  1275 shell-pairs
 PrismC was handed    13082717 working-precision words and  1275 shell-pairs
 Enter PrismC: JobTyp=21 DoJE=F Cont=F.
 PrismC was handed    13082717 working-precision words and  1275 shell-pairs
 PrismC was handed    13082717 working-precision words and  1275 shell-pairs
 PrismC was handed    13082717 working-precision words and  1275 shell-pairs
 PrismC was handed    13082717 working-precision words and  1275 shell-pairs
 PrismC was handed    13082717 working-precision words and  1275 shell-pairs
 IPart= 20 NShTot=       22114 NShNF=       22114 NShFF=           0 NBatch=         257 AvBLen=        86.0
 IPart=  4 NShTot=       28476 NShNF=       28476 NShFF=           0 NBatch=         261 AvBLen=       109.1
 IPart=  7 NShTot=       23495 NShNF=       23495 NShFF=           0 NBatch=         265 AvBLen=        88.7
 IPart=  8 NShTot=       28746 NShNF=       28746 NShFF=           0 NBatch=         249 AvBLen=       115.4
 IPart=  9 NShTot=       23442 NShNF=       23442 NShFF=           0 NBatch=         262 AvBLen=        89.5
 IPart=  2 NShTot=       25984 NShNF=       25984 NShFF=           0 NBatch=         235 AvBLen=       110.6
 IPart= 26 NShTot=       23488 NShNF=       23488 NShFF=           0 NBatch=         258 AvBLen=        91.0
 IPart= 13 NShTot=       23712 NShNF=       23712 NShFF=           0 NBatch=         249 AvBLen=        95.2
 IPart= 23 NShTot=       25565 NShNF=       25565 NShFF=           0 NBatch=         250 AvBLen=       102.3
 IPart=  6 NShTot=       25657 NShNF=       25657 NShFF=           0 NBatch=         248 AvBLen=       103.5
 IPart= 18 NShTot=       23876 NShNF=       23876 NShFF=           0 NBatch=         258 AvBLen=        92.5
 IPart= 27 NShTot=       23925 NShNF=       23925 NShFF=           0 NBatch=         240 AvBLen=        99.7
 IPart= 22 NShTot=       26378 NShNF=       26378 NShFF=           0 NBatch=         275 AvBLen=        95.9
 IPart=  0 NShTot=       24249 NShNF=       24249 NShFF=           0 NBatch=         258 AvBLen=        94.0
 IPart= 24 NShTot=       27993 NShNF=       27993 NShFF=           0 NBatch=         269 AvBLen=       104.1
 IPart= 14 NShTot=       24206 NShNF=       24206 NShFF=           0 NBatch=         256 AvBLen=        94.6
 IPart=  1 NShTot=       25711 NShNF=       25711 NShFF=           0 NBatch=         253 AvBLen=       101.6
 IPart= 17 NShTot=       25266 NShNF=       25266 NShFF=           0 NBatch=         250 AvBLen=       101.1
 IPart= 10 NShTot=       25820 NShNF=       25820 NShFF=           0 NBatch=         264 AvBLen=        97.8
 IPart= 16 NShTot=       26033 NShNF=       26033 NShFF=           0 NBatch=         256 AvBLen=       101.7
 IPart= 29 NShTot=       23857 NShNF=       23857 NShFF=           0 NBatch=         268 AvBLen=        89.0
 IPart= 11 NShTot=       22524 NShNF=       22524 NShFF=           0 NBatch=         220 AvBLen=       102.4
 IPart= 12 NShTot=       20667 NShNF=       20667 NShFF=           0 NBatch=         195 AvBLen=       106.0
 IPart=  5 NShTot=       28159 NShNF=       28159 NShFF=           0 NBatch=         266 AvBLen=       105.9
 IPart= 21 NShTot=       24781 NShNF=       24781 NShFF=           0 NBatch=         271 AvBLen=        91.4
 IPart= 31 NShTot=       28348 NShNF=       28348 NShFF=           0 NBatch=         277 AvBLen=       102.3
 IPart= 28 NShTot=       26719 NShNF=       26719 NShFF=           0 NBatch=         256 AvBLen=       104.4
 IPart= 19 NShTot=       25532 NShNF=       25532 NShFF=           0 NBatch=         265 AvBLen=        96.3
 IPart= 30 NShTot=       25548 NShNF=       25548 NShFF=           0 NBatch=         209 AvBLen=       122.2
 IPart= 15 NShTot=       26134 NShNF=       26134 NShFF=           0 NBatch=         268 AvBLen=        97.5
 IPart= 25 NShTot=       27095 NShNF=       27095 NShFF=           0 NBatch=         263 AvBLen=       103.0
 IPart=  3 NShTot=       24988 NShNF=       24988 NShFF=           0 NBatch=         270 AvBLen=        92.5
 CoulSu:  NxtVal=         897637.
 FoFCou: FMM=F IPFlag=           0 FMFlag=      100000 FMFlg1=         800
         NFxFlg=           0 DoJE=F BraDBF=F KetDBF=F FulRan=T
         wScrn=  0.000000 ICntrl=    2127 IOpCl=  1 I1Cent=           0 NGrid=           0
         NMat0=    1 NMatS0=      0 NMatT0=    1 NMatD0=    1 NMtDS0=    0 NMtDT0=    0
         CW=    0.222036    0.777964
         WU=    0.000000   12.500000
 Symmetry not used in FoFCou.
 FoFCou:  KetSym=F NOpSet=  1 NOpAb=1 NOp=  1.
 FoFCou:  CnvScl= 1.00D+00 Thresh= 1.00D-10 IAcrcy=      10.
 PrismS was handed   419296894 working-precision words and  1275 shell-pairs
 FoFCou: LinMIO=F DoNuc=F BraDBF=F KetDBF=F HaveP=T PDBF=F HaveZ=T HaveW=F
         NIJTC =      10 NIJTAt=       0 NIJTCD=       0 NIJTT =      10
         IJTBeg=       1 IJTEnd=      10 KLTBeg=       1 KLTEnd=      10
         IPTBeg=       1 IPTEnd=      10 IPTBCv=       1 IPTECv=      10
         IZTBeg=       1 IZTEnd=      10 IZTBCv=       1 IZTECv=      10
         IWTBeg=      11 IWTEnd=      10 IWTBCv=      11 IWTECv=      10
         INTBeg=       1 INTEnd=       0 IFTBCv=       1 IFTECv=      10
 NCel replicated for PrismC:     1
 CoulSu:  IncDef=  1024 NBBP=         813450 NTPThr=   100 NPartT=   32 Incr=         254 LDynOK=F.
 CoulSu:  NPrtUS=  32 ThrOK=T IAlg=1 NPAlg=1 LenDen=           0 LWGrdD=           0 DoCopy=F.
 Enter PrismC: JobTyp=21 DoJE=F Cont=F.
 Linear combination for Coulomb/exchange, wScrn=  0.000000
 CW=    0.222036    0.777964
 Enter PrismC: JobTyp=21 DoJE=F Cont=F.
 Enter PrismC: JobTyp=21 DoJE=F Cont=F.
 Linear combination for Coulomb/exchange, wScrn=  0.000000
 CW=    0.222036    0.777964
 WU=    0.000000   12.500000
 Enter PrismC: JobTyp=21 DoJE=F Cont=F.
 Linear combination for Coulomb/exchange, wScrn=  0.000000
 CW=    0.222036    0.777964
 WU=    0.000000   12.500000
 Enter PrismC: JobTyp=21 DoJE=F Cont=F.
 Linear combination for Coulomb/exchange, wScrn=  0.000000
 CW=    0.222036    0.777964
 WU=    0.000000   12.500000
 Enter PrismC: JobTyp=21 DoJE=F Cont=F.
 Linear combination for Coulomb/exchange, wScrn=  0.000000
 CW=    0.222036    0.777964
 WU=    0.000000   12.500000
 Enter PrismC: JobTyp=21 DoJE=F Cont=F.
 Linear combination for Coulomb/exchange, wScrn=  0.000000
 CW=    0.222036    0.777964
 WU=    0.000000   12.500000
 Enter PrismC: JobTyp=21 DoJE=F Cont=F.
 Linear combination for Coulomb/exchange, wScrn=  0.000000
 CW=    0.222036    0.777964
 WU=    0.000000   12.500000
 PrismC was handed    13082678 working-precision words and  1275 shell-pairs
 Enter PrismC: JobTyp=21 DoJE=F Cont=F.
 Enter PrismC: JobTyp=21 DoJE=F Cont=F.
 Linear combination for Coulomb/exchange, wScrn=  0.000000
 CW=    0.222036    0.777964
 WU=    0.000000   12.500000
 Enter PrismC: JobTyp=21 DoJE=F Cont=F.
 Linear combination for Coulomb/exchange, wScrn=  0.000000
 CW=    0.222036    0.777964
 WU=    0.000000   12.500000
 Enter PrismC: JobTyp=21 DoJE=F Cont=F.
 Linear combination for Coulomb/exchange, wScrn=  0.000000
 CW=    0.222036    0.777964
 WU=    0.000000   12.500000
 Enter PrismC: JobTyp=21 DoJE=F Cont=F.
 Linear combination for Coulomb/exchange, wScrn=  0.000000
 CW=    0.222036    0.777964
 WU=    0.000000   12.500000
 Enter PrismC: JobTyp=21 DoJE=F Cont=F.
 Linear combination for Coulomb/exchange, wScrn=  0.000000
 CW=    0.222036    0.777964
 WU=    0.000000   12.500000
 Enter PrismC: JobTyp=21 DoJE=F Cont=F.
 Linear combination for Coulomb/exchange, wScrn=  0.000000
 CW=    0.222036    0.777964
 WU=    0.000000   12.500000
 Enter PrismC: JobTyp=21 DoJE=F Cont=F.
 Linear combination for Coulomb/exchange, wScrn=  0.000000
 CW=    0.222036    0.777964
 WU=    0.000000   12.500000
 Enter PrismC: JobTyp=21 DoJE=F Cont=F.
 Linear combination for Coulomb/exchange, wScrn=  0.000000
 CW=    0.222036    0.777964
 WU=    0.000000   12.500000
 Enter PrismC: JobTyp=21 DoJE=F Cont=F.
 Linear combination for Coulomb/exchange, wScrn=  0.000000
 CW=    0.222036    0.777964
 WU=    0.000000   12.500000
 Enter PrismC: JobTyp=21 DoJE=F Cont=F.
 Linear combination for Coulomb/exchange, wScrn=  0.000000
 CW=    0.222036    0.777964
 WU=    0.000000   12.500000
 Enter PrismC: JobTyp=21 DoJE=F Cont=F.
 Linear combination for Coulomb/exchange, wScrn=  0.000000
 CW=    0.222036    0.777964
 WU=    0.000000   12.500000
 Enter PrismC: JobTyp=21 DoJE=F Cont=F.
 Linear combination for Coulomb/exchange, wScrn=  0.000000
 CW=    0.222036    0.777964
 WU=    0.000000   12.500000
 Enter PrismC: JobTyp=21 DoJE=F Cont=F.
 Linear combination for Coulomb/exchange, wScrn=  0.000000
 CW=    0.222036    0.777964
 WU=    0.000000   12.500000
 PrismC was handed    13082678 working-precision words and  1275 shell-pairs
 WU=    0.000000   12.500000
 PrismC was handed    13082678 working-precision words and  1275 shell-pairs
 PrismC was handed    13082678 working-precision words and  1275 shell-pairs
 Enter PrismC: JobTyp=21 DoJE=F Cont=F.
 Enter PrismC: JobTyp=21 DoJE=F Cont=F.
 Linear combination for Coulomb/exchange, wScrn=  0.000000
 CW=    0.222036    0.777964
 WU=    0.000000   12.500000
 Enter PrismC: JobTyp=21 DoJE=F Cont=F.
 Linear combination for Coulomb/exchange, wScrn=  0.000000
 CW=    0.222036    0.777964
 WU=    0.000000   12.500000
 Enter PrismC: JobTyp=21 DoJE=F Cont=F.
 Linear combination for Coulomb/exchange, wScrn=  0.000000
 CW=    0.222036    0.777964
 WU=    0.000000   12.500000
 PrismC was handed    13082678 working-precision words and  1275 shell-pairs
 PrismC was handed    13082678 working-precision words and  1275 shell-pairs
 Enter PrismC: JobTyp=21 DoJE=F Cont=F.
 Linear combination for Coulomb/exchange, wScrn=  0.000000
 CW=    0.222036    0.777964
 WU=    0.000000   12.500000
 Enter PrismC: JobTyp=21 DoJE=F Cont=F.
 Linear combination for Coulomb/exchange, wScrn=  0.000000
 CW=    0.222036    0.777964
 WU=    0.000000   12.500000
 Enter PrismC: JobTyp=21 DoJE=F Cont=F.
 Linear combination for Coulomb/exchange, wScrn=  0.000000
 CW=    0.222036    0.777964
 WU=    0.000000   12.500000
 PrismC:  IPart=     0 DynPar=T LinDyn=F Incr=         254 UseFst=F UseS4=T IGathr=2.
 PrismC was handed    13082678 working-precision words and  1275 shell-pairs
 PrismC was handed    13082678 working-precision words and  1275 shell-pairs
 Linear combination for Coulomb/exchange, wScrn=  0.000000
 CW=    0.222036    0.777964
 WU=    0.000000   12.500000
 PrismC was handed    13082678 working-precision words and  1275 shell-pairs
 Enter PrismC: JobTyp=21 DoJE=F Cont=F.
 Linear combination for Coulomb/exchange, wScrn=  0.000000
 CW=    0.222036    0.777964
 WU=    0.000000   12.500000
 Enter PrismC: JobTyp=21 DoJE=F Cont=F.
 Linear combination for Coulomb/exchange, wScrn=  0.000000
 CW=    0.222036    0.777964
 WU=    0.000000   12.500000
 PrismC was handed    13082678 working-precision words and  1275 shell-pairs
 PrismC was handed    13082678 working-precision words and  1275 shell-pairs
 PrismC was handed    13082678 working-precision words and  1275 shell-pairs
 PrismC was handed    13082678 working-precision words and  1275 shell-pairs
 PrismC was handed    13082678 working-precision words and  1275 shell-pairs
 PrismC was handed    13082678 working-precision words and  1275 shell-pairs
 PrismC was handed    13082678 working-precision words and  1275 shell-pairs
 PrismC was handed    13082678 working-precision words and  1275 shell-pairs
 PrismC was handed    13082678 working-precision words and  1275 shell-pairs
 Enter PrismC: JobTyp=21 DoJE=F Cont=F.
 Linear combination for Coulomb/exchange, wScrn=  0.000000
 CW=    0.222036    0.777964
 WU=    0.000000   12.500000
 PrismC was handed    13082678 working-precision words and  1275 shell-pairs
 PrismC was handed    13082678 working-precision words and  1275 shell-pairs
 PrismC was handed    13082678 working-precision words and  1275 shell-pairs
 PrismC was handed    13082678 working-precision words and  1275 shell-pairs
 PrismC was handed    13082678 working-precision words and  1275 shell-pairs
 PrismC was handed    13082678 working-precision words and  1275 shell-pairs
 PrismC was handed    13082678 working-precision words and  1275 shell-pairs
 PrismC was handed    13082678 working-precision words and  1275 shell-pairs
 PrismC was handed    13082678 working-precision words and  1275 shell-pairs
 PrismC was handed    13082678 working-precision words and  1275 shell-pairs
 PrismC was handed    13082678 working-precision words and  1275 shell-pairs
 Linear combination for Coulomb/exchange, wScrn=  0.000000
 CW=    0.222036    0.777964
 WU=    0.000000   12.500000
 Linear combination for Coulomb/exchange, wScrn=  0.000000
 CW=    0.222036    0.777964
 WU=    0.000000   12.500000
 PrismC was handed    13082678 working-precision words and  1275 shell-pairs
 PrismC was handed    13082678 working-precision words and  1275 shell-pairs
 PrismC was handed    13082678 working-precision words and  1275 shell-pairs
 IPart= 19 NShTot=       21923 NShNF=       21923 NShFF=           0 NBatch=         251 AvBLen=        87.3
 IPart= 25 NShTot=       20145 NShNF=       20145 NShFF=           0 NBatch=         233 AvBLen=        86.5
 IPart= 26 NShTot=       26391 NShNF=       26391 NShFF=           0 NBatch=         340 AvBLen=        77.6
 IPart= 14 NShTot=       25448 NShNF=       25448 NShFF=           0 NBatch=         271 AvBLen=        93.9
 IPart=  1 NShTot=       22533 NShNF=       22533 NShFF=           0 NBatch=         309 AvBLen=        72.9
 IPart=  2 NShTot=       24243 NShNF=       24243 NShFF=           0 NBatch=         253 AvBLen=        95.8
 IPart= 13 NShTot=       26019 NShNF=       26019 NShFF=           0 NBatch=         283 AvBLen=        91.9
 IPart=  6 NShTot=       23689 NShNF=       23689 NShFF=           0 NBatch=         314 AvBLen=        75.4
 IPart= 22 NShTot=       25634 NShNF=       25634 NShFF=           0 NBatch=         282 AvBLen=        90.9
 IPart= 10 NShTot=       27664 NShNF=       27664 NShFF=           0 NBatch=         335 AvBLen=        82.6
 IPart= 23 NShTot=       22752 NShNF=       22752 NShFF=           0 NBatch=         271 AvBLen=        84.0
 IPart=  8 NShTot=       28059 NShNF=       28059 NShFF=           0 NBatch=         324 AvBLen=        86.6
 IPart= 11 NShTot=       25723 NShNF=       25723 NShFF=           0 NBatch=         277 AvBLen=        92.9
 IPart= 29 NShTot=       22133 NShNF=       22133 NShFF=           0 NBatch=         242 AvBLen=        91.5
 IPart= 17 NShTot=       25964 NShNF=       25964 NShFF=           0 NBatch=         305 AvBLen=        85.1
 IPart= 30 NShTot=       27187 NShNF=       27187 NShFF=           0 NBatch=         298 AvBLen=        91.2
 IPart=  4 NShTot=       25828 NShNF=       25828 NShFF=           0 NBatch=         327 AvBLen=        79.0
 IPart= 28 NShTot=       27023 NShNF=       27023 NShFF=           0 NBatch=         349 AvBLen=        77.4
 IPart= 31 NShTot=       24332 NShNF=       24332 NShFF=           0 NBatch=         329 AvBLen=        74.0
 IPart= 20 NShTot=       26518 NShNF=       26518 NShFF=           0 NBatch=         352 AvBLen=        75.3
 IPart=  7 NShTot=       24111 NShNF=       24111 NShFF=           0 NBatch=         339 AvBLen=        71.1
 IPart= 21 NShTot=       26911 NShNF=       26911 NShFF=           0 NBatch=         324 AvBLen=        83.1
 IPart=  5 NShTot=       23414 NShNF=       23414 NShFF=           0 NBatch=         265 AvBLen=        88.4
 IPart= 24 NShTot=       30082 NShNF=       30082 NShFF=           0 NBatch=         340 AvBLen=        88.5
 IPart=  3 NShTot=       24367 NShNF=       24367 NShFF=           0 NBatch=         309 AvBLen=        78.9
 IPart= 16 NShTot=       25598 NShNF=       25598 NShFF=           0 NBatch=         287 AvBLen=        89.2
 IPart=  9 NShTot=       24516 NShNF=       24516 NShFF=           0 NBatch=         274 AvBLen=        89.5
 IPart= 12 NShTot=       25423 NShNF=       25423 NShFF=           0 NBatch=         318 AvBLen=        79.9
 IPart=  0 NShTot=       24089 NShNF=       24089 NShFF=           0 NBatch=         278 AvBLen=        86.7
 IPart= 15 NShTot=       27062 NShNF=       27062 NShFF=           0 NBatch=         327 AvBLen=        82.8
 IPart= 18 NShTot=       26494 NShNF=       26494 NShFF=           0 NBatch=         337 AvBLen=        78.6
 IPart= 27 NShTot=       26523 NShNF=       26523 NShFF=           0 NBatch=         312 AvBLen=        85.0
 CoulSu:  NxtVal=         897637.
 ReadGW:  IGet=0 IStart=           1 Next=           1 LGW=           0.
 Remaining memory in FofDFT      399.95 Mw
 CkSvGd:  ISavGI=        -1 IRadAn=       5 IRASav=       5 ISavGd=        -1.
 CalDSu:  NPrtUS=  32 ThrOK=T IAlg=1 NPAlg=2 DoDPD=T LenP=       12090 LenD1P=             0.
 IPart=  0 IRanGd=          0 ScrnBf=T ScrnGd=T RCrit=4.00D+00 DoMicB=T.
 IPart=  5         2997 of         3246 points in       3 batches and       20 microbatches, Max-NSigAt=       5 Max-NSgAt2=       5
 IPart=  8         2839 of         2992 points in       3 batches and        7 microbatches, Max-NSigAt=       5 Max-NSgAt2=       5
 IPart= 22         2538 of         2538 points in       2 batches and        6 microbatches, Max-NSigAt=       5 Max-NSgAt2=       5
 IPart= 16         3162 of         3568 points in       4 batches and       28 microbatches, Max-NSigAt=       5 Max-NSgAt2=       5
 IPart= 10         3302 of         3596 points in       4 batches and        8 microbatches, Max-NSigAt=       5 Max-NSgAt2=       5
 IPart= 14         2584 of         2584 points in       2 batches and        6 microbatches, Max-NSigAt=       5 Max-NSgAt2=       5
 IPart= 12         2551 of         2556 points in       2 batches and        7 microbatches, Max-NSigAt=       5 Max-NSgAt2=       5
 IPart=  2         3303 of         3596 points in       4 batches and        8 microbatches, Max-NSigAt=       5 Max-NSgAt2=       5
 IPart= 18         2722 of         2964 points in       3 batches and       25 microbatches, Max-NSigAt=       5 Max-NSgAt2=       5
 IPart=  0         2814 of         2988 points in       3 batches and       27 microbatches, Max-NSigAt=       5 Max-NSgAt2=       5
 IPart= 11         3671 of         4172 points in       5 batches and       38 microbatches, Max-NSigAt=       5 Max-NSgAt2=       5
 IPart=  6         2670 of         2732 points in       2 batches and        9 microbatches, Max-NSigAt=       5 Max-NSgAt2=       5
 IPart=  4         3142 of         3336 points in       3 batches and        8 microbatches, Max-NSigAt=       5 Max-NSgAt2=       5
 IPart= 15         3145 of         3246 points in       3 batches and       27 microbatches, Max-NSigAt=       5 Max-NSgAt2=       5
 IPart= 28         3097 of         3322 points in       3 batches and       39 microbatches, Max-NSigAt=       5 Max-NSgAt2=       5
 IPart= 25         3521 of         3954 points in       5 batches and       39 microbatches, Max-NSigAt=       5 Max-NSgAt2=       5
 IPart=  1         3618 of         4228 points in       6 batches and       61 microbatches, Max-NSigAt=       5 Max-NSgAt2=       5
 IPart= 21         3614 of         4200 points in       6 batches and       65 microbatches, Max-NSigAt=       5 Max-NSgAt2=       5
 IPart= 19         3869 of         4172 points in       4 batches and       11 microbatches, Max-NSigAt=       5 Max-NSgAt2=       5
 IPart= 17         3377 of         3568 points in       4 batches and       26 microbatches, Max-NSigAt=       5 Max-NSgAt2=       5
 IPart=  9         3964 of         4368 points in       5 batches and       32 microbatches, Max-NSigAt=       5 Max-NSgAt2=       5
 IPart= 29         3457 of         3540 points in       3 batches and       11 microbatches, Max-NSigAt=       5 Max-NSgAt2=       5
 IPart=  7         4251 of         4650 points in       5 batches and       30 microbatches, Max-NSigAt=       5 Max-NSgAt2=       5
 IPart=  3         3910 of         4144 points in       4 batches and       10 microbatches, Max-NSigAt=       5 Max-NSgAt2=       5
 IPart= 23         3485 of         3540 points in       3 batches and       12 microbatches, Max-NSigAt=       5 Max-NSgAt2=       5
 IPart= 30         3388 of         3596 points in       4 batches and       24 microbatches, Max-NSigAt=       5 Max-NSgAt2=       5
 IPart= 13         3870 of         4144 points in       4 batches and       15 microbatches, Max-NSigAt=       5 Max-NSgAt2=       5
 IPart= 31         3806 of         3806 points in       3 batches and        9 microbatches, Max-NSigAt=       5 Max-NSgAt2=       5
 IPart= 26         3371 of         3568 points in       4 batches and       25 microbatches, Max-NSigAt=       5 Max-NSgAt2=       5
 IPart= 20         3417 of         3540 points in       3 batches and       12 microbatches, Max-NSigAt=       5 Max-NSgAt2=       5
 IPart= 24         3518 of         3564 points in       3 batches and       14 microbatches, Max-NSigAt=       5 Max-NSgAt2=       5
 IPart= 27         4225 of         4544 points in       4 batches and       13 microbatches, Max-NSigAt=       5 Max-NSgAt2=       5
 Forces at end of L703
 I=    0 X=   1.395954478551D-01 Y=   4.696534661698D-01 Z=   8.535887380013D-02
 I=    1 X=   9.673680003144D-03 Y=   3.257364990486D-02 Z=   5.915754796263D-03
 I=    2 X=   7.270885231927D-04 Y=   2.421775693685D-03 Z=  -2.329074164855D-04
 I=    3 X=   1.177156660090D-04 Y=   2.425959661116D-03 Z=   7.522234901876D-04
 I=    4 X=   1.224825839721D-03 Y=   2.100549722072D-03 Z=   7.479515517612D-04
 I=    5 X=  -1.174331003207D-02 Y=  -3.952193498173D-02 Z=  -7.183022421726D-03
 FrcOut:
 IF    =    36 IFX   =    51 IFXYZ =    66
 IFFX  =    81 IFFFX =   201 IFLen =    15
 IFFLen=   120 IFFFLn=     0 IEDerv=   201
 LEDerv=   773 IFroze=  1163 ICStrt= 39591
 FCEst1:  Generated internal coordinate force constants:
                1             2             3             4             5 
      1  0.665998D+00
      2 -0.118813D+00  0.301650D+00
      3 -0.215721D-01 -0.726479D-01  0.688131D+00
      4 -0.100082D+00  0.105528D-01 -0.935012D-03  0.691096D-01
      5  0.105528D-01 -0.677417D-01 -0.313135D-02 -0.584414D-02  0.512025D-01
      6  0.000000D+00  0.000000D+00 -0.361033D+00  0.000000D+00  0.000000D+00
      7 -0.307205D+00  0.480791D-02  0.106056D+00  0.177351D-01  0.570272D-03
      8  0.202077D-02 -0.677363D-01  0.108169D-01  0.125124D-02  0.436540D-02
      9  0.105124D+00  0.938970D-02 -0.153909D+00  0.346361D-01  0.111372D-02
     10 -0.238847D+00  0.106788D+00 -0.829403D-01  0.129151D-01 -0.614652D-02
     11  0.109577D+00 -0.136067D+00  0.670030D-01 -0.682738D-02  0.919014D-02
     12 -0.829429D-01  0.652992D-01 -0.153944D+00 -0.284011D-01  0.198525D-01
     13 -0.198639D-01 -0.333523D-02 -0.608227D-03  0.322187D-03  0.867542D-03
     14 -0.333725D-02 -0.301045D-01 -0.204056D-02  0.867523D-03  0.298369D-02
     15 -0.608714D-03 -0.204097D-02 -0.192448D-01 -0.529995D-02 -0.178349D-01
                6             7             8             9            10 
      6  0.361033D+00
      7  0.000000D+00  0.300394D+00
      8  0.000000D+00 -0.266265D-02  0.512002D-01
      9  0.000000D+00 -0.118426D+00 -0.520008D-02  0.129751D+00
     10  0.000000D+00 -0.884029D-02  0.148702D-01 -0.172648D-01  0.228443D+00
     11  0.000000D+00 -0.311080D-02  0.918841D-02 -0.607530D-02 -0.112935D+00
     12  0.000000D+00  0.111386D-01 -0.145173D-01  0.217533D-01  0.963744D-01
     13  0.000000D+00 -0.208350D-02 -0.154795D-01 -0.406902D-02  0.632864D-02
     14  0.000000D+00  0.395271D-03  0.298231D-02  0.771953D-03 -0.257688D-02
     15  0.000000D+00  0.123176D-02  0.890051D-02  0.240559D-02  0.383073D-02
               11            12            13            14            15 
     11  0.123118D+00
     12 -0.690584D-01  0.129784D+00
     13  0.132959D-01  0.383108D-02  0.152966D-01
     14 -0.542884D-02 -0.157597D-02  0.465134D-02  0.295673D-01
     15  0.813076D-02  0.240720D-02  0.846167D-03  0.284458D-02  0.144320D-01
 Quadrupole    = 4.85244390D-01-1.06461103D+00 5.79366640D-01
                -5.05322126D-01-9.17418889D-02-3.09035113D-01
 -------------------------------------------------------------------
 Center     Atomic                   Forces (Hartrees/Bohr)
 Number     Number              X              Y              Z
 -------------------------------------------------------------------
      1        6          -0.009673680   -0.032573650   -0.005915755
      2        1          -0.000727089   -0.002421776    0.000232907
      3        1          -0.000117716   -0.002425960   -0.000752223
      4        1          -0.001224826   -0.002100550   -0.000747952
      5        1           0.011743310    0.039521935    0.007183022
 -------------------------------------------------------------------
 Cartesian Forces:  Max     0.039521935 RMS     0.014048697
 From PutF, contents of force:
   1    0.2329074165D-03
   2    0.2380600931D-03
   3    0.2327901442D-03
   4    0.1474760845D-02
   5    0.1470514441D-02
   6   -0.4407690685D-02
   7    0.4792945368D-05
   8    0.1393033680D-06
   9   -0.4185074055D-01
 -----------------------------------------------------------------------------------------------
                       Internal Coordinate Forces (Hartree/Bohr or radian)
  Cent   Atom   N1       Length/X         N2         Alpha/Y        N3         Beta/Z          J
 -----------------------------------------------------------------------------------------------
      1  C 
      2  H        1   0.000233(     1)
      3  H        1   0.000238(     2)      2   0.001475(     5)
      4  H        1   0.000233(     3)      2   0.001471(     6)      3  -0.004408(     8)     0
      5  H        1  -0.041851(     4)      2   0.000000(     7)      3   0.000005(     9)     0
 -----------------------------------------------------------------------------------------------
 Internal  Forces:  Max     0.041850741 RMS     0.014045223
 Force constants in Cartesian coordinates: 
                1             2             3             4             5 
      1  0.665998D+00
      2 -0.118813D+00  0.301650D+00
      3 -0.215721D-01 -0.726479D-01  0.688131D+00
      4 -0.100082D+00  0.105528D-01 -0.935012D-03  0.691096D-01
      5  0.105528D-01 -0.677417D-01 -0.313135D-02 -0.584414D-02  0.512025D-01
      6  0.000000D+00  0.000000D+00 -0.361033D+00  0.000000D+00  0.000000D+00
      7 -0.307205D+00  0.480791D-02  0.106056D+00  0.177351D-01  0.570272D-03
      8  0.202077D-02 -0.677363D-01  0.108169D-01  0.125124D-02  0.436540D-02
      9  0.105124D+00  0.938970D-02 -0.153909D+00  0.346361D-01  0.111372D-02
     10 -0.238847D+00  0.106788D+00 -0.829403D-01  0.129151D-01 -0.614652D-02
     11  0.109577D+00 -0.136067D+00  0.670030D-01 -0.682738D-02  0.919014D-02
     12 -0.829429D-01  0.652992D-01 -0.153944D+00 -0.284011D-01  0.198525D-01
     13 -0.198639D-01 -0.333523D-02 -0.608227D-03  0.322187D-03  0.867542D-03
     14 -0.333725D-02 -0.301045D-01 -0.204056D-02  0.867523D-03  0.298369D-02
     15 -0.608714D-03 -0.204097D-02 -0.192448D-01 -0.529995D-02 -0.178349D-01
                6             7             8             9            10 
      6  0.361033D+00
      7  0.000000D+00  0.300394D+00
      8  0.000000D+00 -0.266265D-02  0.512002D-01
      9  0.000000D+00 -0.118426D+00 -0.520008D-02  0.129751D+00
     10  0.000000D+00 -0.884029D-02  0.148702D-01 -0.172648D-01  0.228443D+00
     11  0.000000D+00 -0.311080D-02  0.918841D-02 -0.607530D-02 -0.112935D+00
     12  0.000000D+00  0.111386D-01 -0.145173D-01  0.217533D-01  0.963744D-01
     13  0.000000D+00 -0.208350D-02 -0.154795D-01 -0.406902D-02  0.632864D-02
     14  0.000000D+00  0.395271D-03  0.298231D-02  0.771953D-03 -0.257688D-02
     15  0.000000D+00  0.123176D-02  0.890051D-02  0.240559D-02  0.383073D-02
               11            12            13            14            15 
     11  0.123118D+00
     12 -0.690584D-01  0.129784D+00
     13  0.132959D-01  0.383108D-02  0.152966D-01
     14 -0.542884D-02 -0.157597D-02  0.465134D-02  0.295673D-01
     15  0.813076D-02  0.240720D-02  0.846167D-03  0.284458D-02  0.144320D-01
 FCInt: Cartesian first derivatives: 
                 1             2             3             4             5 
      1   0.000000D+00  0.000000D+00  0.000000D+00  0.000000D+00  0.000000D+00
      2   0.000000D+00  0.000000D+00  0.000000D+00  0.000000D+00  0.000000D+00
      3   0.000000D+00  0.000000D+00  0.000000D+00  0.000000D+00  0.000000D+00
 FCInt: Cartesian force constants: 
                1             2             3             4             5 
      1  0.665998D+00
      2 -0.118813D+00  0.301650D+00
      3 -0.215721D-01 -0.726479D-01  0.688131D+00
      4 -0.100082D+00  0.105528D-01 -0.935012D-03  0.691096D-01
      5  0.105528D-01 -0.677417D-01 -0.313135D-02 -0.584414D-02  0.512025D-01
      6  0.000000D+00  0.000000D+00 -0.361033D+00  0.000000D+00  0.000000D+00
      7 -0.307205D+00  0.480791D-02  0.106056D+00  0.177351D-01  0.570272D-03
      8  0.202077D-02 -0.677363D-01  0.108169D-01  0.125124D-02  0.436540D-02
      9  0.105124D+00  0.938970D-02 -0.153909D+00  0.346361D-01  0.111372D-02
     10 -0.238847D+00  0.106788D+00 -0.829403D-01  0.129151D-01 -0.614652D-02
     11  0.109577D+00 -0.136067D+00  0.670030D-01 -0.682738D-02  0.919014D-02
     12 -0.829429D-01  0.652992D-01 -0.153944D+00 -0.284011D-01  0.198525D-01
     13 -0.198639D-01 -0.333523D-02 -0.608227D-03  0.322187D-03  0.867542D-03
     14 -0.333725D-02 -0.301045D-01 -0.204056D-02  0.867523D-03  0.298369D-02
     15 -0.608714D-03 -0.204097D-02 -0.192448D-01 -0.529995D-02 -0.178349D-01
                6             7             8             9            10 
      6  0.361033D+00
      7  0.000000D+00  0.300394D+00
      8  0.000000D+00 -0.266265D-02  0.512002D-01
      9  0.000000D+00 -0.118426D+00 -0.520008D-02  0.129751D+00
     10  0.000000D+00 -0.884029D-02  0.148702D-01 -0.172648D-01  0.228443D+00
     11  0.000000D+00 -0.311080D-02  0.918841D-02 -0.607530D-02 -0.112935D+00
     12  0.000000D+00  0.111386D-01 -0.145173D-01  0.217533D-01  0.963744D-01
     13  0.000000D+00 -0.208350D-02 -0.154795D-01 -0.406902D-02  0.632864D-02
     14  0.000000D+00  0.395271D-03  0.298231D-02  0.771953D-03 -0.257688D-02
     15  0.000000D+00  0.123176D-02  0.890051D-02  0.240559D-02  0.383073D-02
               11            12            13            14            15 
     11  0.123118D+00
     12 -0.690584D-01  0.129784D+00
     13  0.132959D-01  0.383108D-02  0.152966D-01
     14 -0.542884D-02 -0.157597D-02  0.465134D-02  0.295673D-01
     15  0.813076D-02  0.240720D-02  0.846167D-03  0.284458D-02  0.144320D-01
 Internal force constants: 
                1             2             3             4             5 
      1  0.361033D+00
      2  0.000000D+00  0.361033D+00
      3  0.000000D+00  0.000000D+00  0.361033D+00
      4  0.000000D+00  0.000000D+00  0.000000D+00  0.314665D-01
      5  0.000000D+00  0.000000D+00  0.000000D+00  0.000000D+00  0.287391D+00
      6  0.000000D+00  0.000000D+00  0.000000D+00  0.000000D+00  0.114182D+00
      7  0.000000D+00  0.000000D+00  0.000000D+00  0.000000D+00  0.232573D-01
      8  0.000000D+00  0.000000D+00  0.000000D+00  0.000000D+00  0.603753D-01
      9  0.000000D+00  0.000000D+00  0.000000D+00  0.000000D+00 -0.386619D-01
                6             7             8             9 
      6  0.287396D+00
      7  0.232745D-01  0.240505D+00
      8  0.216097D-01 -0.681899D-01  0.168655D+00
      9  0.386735D-01  0.142207D-04 -0.116600D+00  0.233412D+00
 Frcnst in PutFF: 
                1             2             3             4             5 
      1  0.361033D+00
      2  0.000000D+00  0.361033D+00
      3  0.000000D+00  0.000000D+00  0.361033D+00
      4  0.000000D+00  0.000000D+00  0.000000D+00  0.287391D+00
      5  0.000000D+00  0.000000D+00  0.000000D+00  0.114182D+00  0.287396D+00
      6  0.000000D+00  0.000000D+00  0.000000D+00  0.603753D-01  0.216097D-01
      7  0.000000D+00  0.000000D+00  0.000000D+00 -0.386619D-01  0.386735D-01
      8  0.000000D+00  0.000000D+00  0.000000D+00  0.232573D-01  0.232745D-01
      9  0.000000D+00  0.000000D+00  0.000000D+00  0.000000D+00  0.000000D+00
                6             7             8             9 
      6  0.168655D+00
      7 -0.116600D+00  0.233412D+00
      8 -0.681899D-01  0.142207D-04  0.240505D+00
      9  0.000000D+00  0.000000D+00  0.000000D+00  0.314665D-01
 Force constants in internal coordinates: 
                1             2             3             4             5 
      1  0.361033D+00
      2  0.000000D+00  0.361033D+00
      3  0.000000D+00  0.000000D+00  0.361033D+00
      4  0.000000D+00  0.000000D+00  0.000000D+00  0.314665D-01
      5  0.000000D+00  0.000000D+00  0.000000D+00  0.000000D+00  0.287391D+00
      6  0.000000D+00  0.000000D+00  0.000000D+00  0.000000D+00  0.114182D+00
      7  0.000000D+00  0.000000D+00  0.000000D+00  0.000000D+00  0.232573D-01
      8  0.000000D+00  0.000000D+00  0.000000D+00  0.000000D+00  0.603753D-01
      9  0.000000D+00  0.000000D+00  0.000000D+00  0.000000D+00 -0.386619D-01
                6             7             8             9 
      6  0.287396D+00
      7  0.232745D-01  0.240505D+00
      8  0.216097D-01 -0.681899D-01  0.168655D+00
      9  0.386735D-01  0.142207D-04 -0.116600D+00  0.233412D+00
 Final forces over variables, Energy=-4.03666028D+01:
  2.32907416D-04 2.38060093D-04 2.32790144D-04 1.47476084D-03
  1.47051444D-03-4.40769068D-03 4.79294537D-06 1.39303368D-07
 -4.18507406D-02

 GradGradGradGradGradGradGradGradGradGradGradGradGradGradGradGradGradGrad
 Berny optimization.
 Search for a local minimum.
 Step number   1 out of a maximum of   50
 All quantities printed in internal units (Hartrees-Bohrs-Radians)
 Second derivative matrix not updated -- first step.
 The second derivative matrix:
                          R1        R2        R3        A2        A3
           R1           0.36103
           R2           0.00000   0.36103
           R3           0.00000   0.00000   0.36103
           A2           0.00000  -0.00000  -0.00000   0.28739
           A3           0.00000  -0.00000  -0.00000   0.11418   0.28740
           D3           0.00000  -0.00000   0.00000   0.06038   0.02161
           DH1          0.00000  -0.00000  -0.00000  -0.03866   0.03867
           ANG1         0.00000  -0.00000  -0.00000   0.02326   0.02327
           BB           0.00000  -0.00000  -0.00000  -0.00000   0.00000
                          D3        DH1      ANG1       BB
           D3           0.16866
           DH1         -0.11660   0.23341
           ANG1        -0.06819   0.00001   0.24051
           BB          -0.00000   0.00000  -0.00000   0.03147
 ITU=  0
     Eigenvalues ---    0.05338   0.14841   0.24331   0.34988   0.36103
     Eigenvalues ---    0.36103   0.36103   0.422381000.00000
 RFO step:  Lambda=-2.94076728D-04 EMin= 5.33790844D-02
 Linear search not attempted -- first point.
 Variable       Old X    -DE/DX   Delta X   Delta X   Delta X     New X
                                 (Linear)    (Quad)   (Total)
    R1        2.03920   0.00023   0.00000   0.00064   0.00064   2.03985
    R2        2.03920   0.00024   0.00000   0.00066   0.00066   2.03986
    R3        2.03920   0.00023   0.00000   0.00064   0.00064   2.03985
    A2        2.04403   0.00147   0.00000   0.01087   0.01087   2.05490
    A3        2.04417   0.00147   0.00000   0.01077   0.01077   2.05494
    D3        3.71950  -0.00441   0.00000  -0.05942  -0.05942   3.66009
   DH1        1.85965   0.00000   0.00000  -0.02961  -0.02961   1.83004
   ANG1       1.74329   0.00000   0.00000  -0.01892  -0.01892   1.72437
    BB        4.15740  -0.04185   0.00000   0.00000   0.00000   4.15740
         Item               Value     Threshold  Converged?
 Maximum Force            0.004408     0.000450     NO 
 RMS     Force            0.001730     0.000300     NO 
 Maximum Displacement     0.059419     0.001800     NO 
 RMS     Displacement     0.023571     0.001200     NO 
 Predicted change in Energy=-1.477773D-04
 GradGradGradGradGradGradGradGradGradGradGradGradGradGradGradGradGradGrad

 ---------------------------------------------------------------------------------------------------
                            Z-MATRIX (ANGSTROMS AND DEGREES)
   CD    Cent   Atom    N1       Length/X        N2       Alpha/Y        N3        Beta/Z          J
 ---------------------------------------------------------------------------------------------------
      1      1  C 
      2      2  H        1   1.079441(     1)
      3      3  H        1   1.079449(     2)      2  117.737(     5)
      4      4  H        1   1.079441(     3)      2  117.739(     6)      3  209.707(     8)      0
      5      5  H        1   2.200000(     4)      2   98.799(     7)      3  104.854(     9)      0
 ---------------------------------------------------------------------------------------------------
                         Z-Matrix orientation:                         
 ---------------------------------------------------------------------
 Center     Atomic      Atomic             Coordinates (Angstroms)
 Number     Number       Type             X           Y           Z
 ---------------------------------------------------------------------
      1          6           0        0.000000    0.000000    0.000000
      2          1           0        0.000000    0.000000    1.079441
      3          1           0        0.955411    0.000000   -0.502394
      4          1           0       -0.829818    0.473462   -0.502423
      5          1           0       -0.557338   -2.101456   -0.336536
 ---------------------------------------------------------------------
                    Distance matrix (angstroms):
                    1          2          3          4          5
     1  C    0.000000
     2  H    1.079441   0.000000
     3  H    1.079449   1.847975   0.000000
     4  H    1.079441   1.847987   1.846945   0.000000
     5  H    2.200000   2.594559   2.594616   2.594604   0.000000
 Symmetry turned off by external request.
 Stoichiometry    CH4
 Framework group  C1[X(CH4)]
 Deg. of freedom     9
 Full point group                 C1      NOp   1
 Rotational constants (GHZ):    146.8923488     77.8078172     77.7770197
 Standard basis: Aug-CC-pVTZ (5D, 7F)
   138 basis functions,   180 primitive gaussians,   155 cartesian basis functions
     5 alpha electrons        5 beta electrons
       nuclear repulsion energy        11.7384618625 Hartrees.
 NAtoms=    5 NActive=    5 NUniq=    5 SFac= 1.00D+00 NAtFMM=   60 NAOKFM=F Big=F
 Integral buffers will be    131072 words long.
 Raffenetti 2 integral format.
 Two-electron integral symmetry is turned off.
 Nuclear repulsion after empirical dispersion term =       11.7377325696 Hartrees.
 One-electron integrals computed using PRISM.
 NBasis=   138 RedAO= T EigKep=  1.04D-04  NBF=   138
 NBsUse=   138 1.00D-06 EigRej= -1.00D+00 NBFU=   138
 ExpMin= 2.53D-02 ExpMax= 8.24D+03 ExpMxC= 2.81D+02 IAcc=3 IRadAn=         5 AccDes= 0.00D+00
 Harris functional with IExCor= 4639 and IRadAn=       5 diagonalized for initial guess.
 HarFok:  IExCor= 4639 AccDes= 0.00D+00 IRadAn=         5 IDoV= 1 UseB2=F ITyADJ=14
 ICtDFT=  3500011 ScaDFX=  1.000000  1.000000  1.000000  1.000000
 FoFCou: FMM=F IPFlag=           0 FMFlag=      100000 FMFlg1=           0
         NFxFlg=           0 DoJE=T BraDBF=F KetDBF=T FulRan=T
         wScrn=  0.000000 ICntrl=     500 IOpCl=  0 I1Cent=   200000004 NGrid=           0
         NMat0=    1 NMatS0=      1 NMatT0=    0 NMatD0=    1 NMtDS0=    0 NMtDT0=    0
 Symmetry not used in FoFCou.
 Mixing orbitals, IMix= 1 IMixAn=  0 NRI=1 NE=    5 Coef=  7.07106781D-01  7.07106781D-01
 Mixing orbitals, IMix= 1 IMixAn=  0 NRI=1 NE=    5 Coef= -7.07106781D-01  7.07106781D-01
 Initial guess <Sx>= 0.0000 <Sy>= 0.0000 <Sz>= 0.0000 <S**2>= 1.0000 S= 0.6180
 Keep R1 and R2 ints in memory in canonical form, NReq=186089897.
 Requested convergence on RMS density matrix=1.00D-08 within 128 cycles.
 Requested convergence on MAX density matrix=1.00D-06.
 Requested convergence on             energy=1.00D-06.
 No special actions if energy rises.
 SCF Done:  E(UwB97XD) =  -40.3668298323     A.U. after   14 cycles
            NFock= 14  Conv=0.89D-08     -V/T= 2.0114
 <Sx>= 0.0000 <Sy>= 0.0000 <Sz>= 0.0000 <S**2>= 0.3968 S= 0.3042
 <L.S>=  0.00000000000    
 Annihilation of the first spin contaminant:
 S**2 before annihilation     0.3968,   after     0.0031
 DipInt: DoE/N= T T RetVal/Mat= T F Init=T NMatP=  1 IDeriv=0 Min/MaxMlt=  1  1
 Entering OneElI...
 Multipole integrals L=1 to 1 MinM= 0 MaxM= 0.
 Requested accuracy = 0.1000D-12
 PrsmSu:  NPrtUS=   1 ThrOK=F IAlg=1 NPAlg=1 LenDen=           0.
 Prism:   IPart=     0 DynPar=F LinDyn=F Incr=          12.
 PRISM was handed   419323248 working-precision words and  1275 shell-pairs
 IPart=  0 NShTot=        1275 NBatch=          38 AvBLen=        33.6
 PrSmSu:  NxtVal=             13.
 Entering OneElI...
 Calculate overlap and kinetic energy integrals
    NBasis = 155  MinDer = 1  MaxDer = 1
 Requested accuracy = 0.1000D-12
 PrsmSu:  NPrtUS=  32 ThrOK=T IAlg=1 NPAlg=1 LenDen=           0.
 Prism:   IPart=     0 DynPar=F LinDyn=F Incr=           1.
 PRISM was handed    13082602 working-precision words and  1275 shell-pairs
 PRISM was handed    13082602 working-precision words and  1275 shell-pairs
 PRISM was handed    13082602 working-precision words and  1275 shell-pairs
 PRISM was handed    13082602 working-precision words and  1275 shell-pairs
 PRISM was handed    13082602 working-precision words and  1275 shell-pairs
 PRISM was handed    13082602 working-precision words and  1275 shell-pairs
 PRISM was handed    13082602 working-precision words and  1275 shell-pairs
 PRISM was handed    13082602 working-precision words and  1275 shell-pairs
 PRISM was handed    13082602 working-precision words and  1275 shell-pairs
 PRISM was handed    13082602 working-precision words and  1275 shell-pairs
 PRISM was handed    13082602 working-precision words and  1275 shell-pairs
 PRISM was handed    13082602 working-precision words and  1275 shell-pairs
[...]
 Sum of Mulliken charges =  -0.00000  -0.00000
 Mulliken charges and spin densities with hydrogens summed into heavy atoms:
               1          2
     1  C   -0.000000  -0.000000
 APT charges:
               1
     1  C   -0.082579
     2  H    0.028444
     3  H    0.028164
     4  H    0.028019
     5  H   -0.002049
 Sum of APT charges =  -0.00000
 APT charges with hydrogens summed into heavy atoms:
               1
     1  C   -0.000000
 Electronic spatial extent (au):  <R**2>=             51.2387
 Charge=             -0.0000 electrons
 Dipole moment (field-independent basis, Debye):
    X=              0.2666    Y=              1.2113    Z=              0.1583  Tot=              1.2504
 Quadrupole moment (field-independent basis, Debye-Ang):
   XX=             -8.8122   YY=            -11.3726   ZZ=             -8.7232
   XY=             -0.5927   XZ=             -0.0781   YZ=             -0.3537
 Traceless Quadrupole moment (field-independent basis, Debye-Ang):
   XX=              0.8238   YY=             -1.7366   ZZ=              0.9128
   XY=             -0.5927   XZ=             -0.0781   YZ=             -0.3537
 Octapole moment (field-independent basis, Debye-Ang**2):
  XXX=              2.5648  YYY=             11.5914  ZZZ=              2.4395  XYY=              0.8398
  XXY=              3.8837  XXZ=             -0.4320  XZZ=              0.8034  YZZ=              3.6508
  YYZ=              0.5007  XYZ=              0.2159
 Hexadecapole moment (field-independent basis, Debye-Ang**3):
 XXXX=            -18.9889 YYYY=            -58.2197 ZZZZ=            -17.5056 XXXY=             -4.9011
 XXXZ=             -0.7514 YYYX=             -4.1676 YYYZ=             -2.4785 ZZZX=             -0.6129
 ZZZY=             -2.7856 XXYY=            -13.2834 XXZZ=             -6.1410 YYZZ=            -13.2429
 XXYZ=             -1.1066 YYXZ=             -0.0372 ZZXY=             -1.6417
 N-N= 1.174836280325D+01 E-N=-1.161452705324D+02  KE= 3.991785431075D+01
  Exact polarizability:  22.044   5.764  46.969   0.751   3.423  21.223
 Approx polarizability:  19.758   4.780  40.441   0.625   2.841  19.081
                          Isotropic Fermi Contact Couplings
        Atom                 a.u.       MegaHertz       Gauss      10(-4) cm-1
     1  C(13)              0.01847      10.38222       3.70463       3.46314
     2  H(1)              -0.00851     -19.02969      -6.79027      -6.34762
     3  H(1)              -0.00851     -19.02398      -6.78823      -6.34572
     4  H(1)              -0.00851     -19.01211      -6.78399      -6.34176
     5  H(1)              -0.19148    -427.94366    -152.70094    -142.74664
 --------------------------------------------------------
       Center         ----  Spin Dipole Couplings  ----
                      3XX-RR        3YY-RR        3ZZ-RR
 --------------------------------------------------------
     1   Atom       -0.302909      0.636809     -0.333901
     2   Atom       -0.041370     -0.006527      0.047897
     3   Atom        0.026614     -0.006529     -0.020086
     4   Atom        0.021535     -0.001431     -0.020103
     5   Atom       -0.013551      0.028484     -0.014933
 --------------------------------------------------------
                        XY            XZ            YZ
 --------------------------------------------------------
     1   Atom        0.217600      0.028556      0.129592
     2   Atom        0.008071     -0.001211     -0.005508
     3   Atom       -0.000998     -0.038052      0.009717
     4   Atom       -0.011994      0.038605     -0.007171
     5   Atom        0.009714      0.001270      0.005776
 --------------------------------------------------------


 ---------------------------------------------------------------------------------
              Anisotropic Spin Dipole Couplings in Principal Axis System
 ---------------------------------------------------------------------------------

       Atom             a.u.   MegaHertz   Gauss  10(-4) cm-1        Axes

              Baa    -0.3509   -47.088   -16.802   -15.707 -0.1016 -0.1074  0.9890
     1 C(13)  Bbb    -0.3508   -47.081   -16.800   -15.704  0.9717 -0.2240  0.0755
              Bcc     0.7018    94.169    33.602    31.411  0.2134  0.9687  0.1271
 
              Baa    -0.0431   -23.022    -8.215    -7.679  0.9766 -0.2152 -0.0000
     2 H(1)   Bbb    -0.0053    -2.852    -1.018    -0.951  0.2140  0.9711  0.1053
              Bcc     0.0485    25.874     9.233     8.631 -0.0226 -0.1029  0.9944
 
              Baa    -0.0431   -23.018    -8.213    -7.678  0.4653 -0.2152  0.8586
     3 H(1)   Bbb    -0.0053    -2.854    -1.018    -0.952  0.1946  0.9711  0.1380
              Bcc     0.0485    25.872     9.232     8.630  0.8635 -0.1029 -0.4937
 
              Baa    -0.0431   -23.020    -8.214    -7.679 -0.5125  0.0003  0.8587
     4 H(1)   Bbb    -0.0053    -2.851    -1.017    -0.951  0.2316  0.9630  0.1379
              Bcc     0.0485    25.871     9.231     8.630  0.8269 -0.2696  0.4936
 
              Baa    -0.0157    -8.371    -2.987    -2.792 -0.0268 -0.1238  0.9919
     5 H(1)   Bbb    -0.0157    -8.370    -2.987    -2.792  0.9767 -0.2147 -0.0004
              Bcc     0.0314    16.741     5.973     5.584  0.2130  0.9688  0.1267
 

 ---------------------------------------------------------------------------------

 Calling FoFJK, ICntrl=    100127 FMM=F ISym2X=0 I1Cent= 0 IOpClX= 1 NMat=1 NMatS=1 NMatT=0.
 Full mass-weighted force constant matrix:
 Low frequencies ----1324.7844  -19.5707   -0.0008   -0.0007    0.0003  381.9093
 Low frequencies ---  385.4437  721.7653  722.6455
 ******    1 imaginary frequencies (negative Signs) ****** 
 Diagonal vibrational polarizability:
        0.1223695       0.4579329       0.1098000
 Harmonic frequencies (cm**-1), IR intensities (KM/Mole), Raman scattering
 activities (A**4/AMU), depolarization ratios for plane and unpolarized
 incident light, reduced masses (AMU), force constants (mDyne/A),
 and normal coordinates:
                      1                      2                      3
                      A                      A                      A
 Frequencies --  -1324.7844               688.5178               690.4286
 Red. masses --      1.1031                 1.0401                 1.0402
 Frc consts  --      1.1407                 0.2905                 0.2921
 IR Inten    --   22.65                 0.9704                 0.9580    
  Atom  AN      X      Y      Z        X      Y      Z        X      Y      Z
     1   6     0.02   0.09   0.01     0.05  -0.01   0.00    -0.01  -0.01   0.05
     2   1    -0.01  -0.04   0.01    -0.04   0.07   0.00     0.15   0.67   0.06
     3   1     0.00  -0.04  -0.01     0.09   0.56   0.06    -0.09  -0.38  -0.10
     4   1    -0.02  -0.03  -0.01    -0.17  -0.60  -0.07    -0.05  -0.28  -0.09
     5   1    -0.21  -0.96  -0.13    -0.50   0.12  -0.04     0.06   0.05  -0.51
                      4                      5                      6
                      A                      A                      A
 Frequencies --    909.6875              1423.6493              1424.4702
 Red. masses --      1.1733                 1.0949                 1.0947
 Frc consts  --      0.5721                 1.3074                 1.3088
 IR Inten    --   3.960                  3.695                  3.669    
  Atom  AN      X      Y      Z        X      Y      Z        X      Y      Z
     1   6     0.03   0.12   0.02    -0.09   0.02  -0.01    -0.01  -0.01   0.09
     2   1    -0.12  -0.55   0.01     0.78  -0.16  -0.00     0.02  -0.13   0.07
     3   1    -0.05  -0.55  -0.11     0.16   0.00   0.43    -0.34   0.21  -0.54
     4   1    -0.18  -0.52  -0.11     0.10  -0.08  -0.36     0.41   0.04  -0.59
     5   1     0.04   0.20   0.03    -0.01   0.00  -0.00    -0.00  -0.00   0.01
                      7                      8                      9
                      A                      A                      A
 Frequencies --   3130.8607              3305.9109              3306.9733
 Red. masses --      1.0108                 1.1177                 1.1178
 Frc consts  --      5.8377                 7.1969                 7.2023
 IR Inten    --   1.755                 0.4730                 0.4526    
  Atom  AN      X      Y      Z        X      Y      Z        X      Y      Z
     1   6    -0.00  -0.02  -0.00     0.10  -0.02  -0.00    -0.00  -0.01   0.10
     2   1    -0.00  -0.01   0.58     0.01  -0.00   0.02     0.00   0.01  -0.81
     3   1     0.51  -0.01  -0.28    -0.62   0.00   0.35     0.35  -0.01  -0.17
     4   1    -0.46   0.21  -0.28    -0.55   0.25  -0.34    -0.34   0.15  -0.19
     5   1     0.00   0.00   0.00    -0.00   0.00   0.00     0.00   0.00  -0.00

 -------------------
 - Thermochemistry -
 -------------------
 Temperature   298.150 Kelvin.  Pressure   1.00000 Atm.
 Atom     1 has atomic number  6 and mass  12.00000
 Atom     2 has atomic number  1 and mass   1.00783
 Atom     3 has atomic number  1 and mass   1.00783
 Atom     4 has atomic number  1 and mass   1.00783
 Atom     5 has atomic number  1 and mass   1.00783
 Molecular mass:    16.03130 amu.
 Principal axes and moments of inertia in atomic units:
                           1         2         3
     Eigenvalues --    12.35700  23.07200  23.08103
           X            0.21295  -0.06521   0.97489
           Y            0.96885  -0.11505  -0.21932
           Z            0.12647   0.99122   0.03868
 This molecule is an asymmetric top.
 Rotational symmetry number  1.
 Rotational temperatures (Kelvin)      7.00929     3.75407     3.75260
 Rotational constants (GHZ):         146.05009    78.22213    78.19154
    1 imaginary frequencies ignored.
 Zero-point vibrational energy      89005.1 (Joules/Mol)
                                   21.27274 (Kcal/Mol)
 Vibrational temperatures:    990.62   993.37  1308.84  2048.31  2049.49
          (Kelvin)           4504.60  4756.46  4757.99
 
 Zero-point correction=                           0.033900 (Hartree/Particle)
 Thermal correction to Energy=                    0.037032
 Thermal correction to Enthalpy=                  0.037976
 Thermal correction to Gibbs Free Energy=         0.013458
 Sum of electronic and zero-point Energies=            -40.333043
 Sum of electronic and thermal Energies=               -40.329911
 Sum of electronic and thermal Enthalpies=             -40.328967
 Sum of electronic and thermal Free Energies=          -40.353486
 
                     E (Thermal)             CV                S
                      KCal/Mol        Cal/Mol-Kelvin    Cal/Mol-Kelvin
 Total                   23.238              8.343             51.604
 Electronic               0.000              0.000              0.000
 Translational            0.889              2.981             34.261
 Rotational               0.889              2.981             16.539
 Vibrational             21.461              2.381              0.804
                       Q            Log10(Q)             Ln(Q)
 Total Bot       0.645573D-06         -6.190055        -14.253128
 Total V=0       0.252903D+10          9.402954         21.651101
 Vib (Bot)       0.278653D-15        -15.554936        -35.816564
 Vib (V=0)       0.109162D+01          0.038072          0.087664
 Electronic      0.100000D+01          0.000000          0.000000
 Translational   0.252295D+07          6.401908         14.740939
 Rotational      0.918276D+03          2.962973          6.822498
 -------------------------------------------------------------------
 Center     Atomic                   Forces (Hartrees/Bohr)
 Number     Number              X              Y              Z
 -------------------------------------------------------------------
      1        6          -0.008609974   -0.039129422   -0.005336345
      2        1           0.000009623    0.000003459    0.000037481
      3        1           0.000022322   -0.000045209    0.000087885
      4        1          -0.000041823   -0.000036616    0.000087015
      5        1           0.008619852    0.039207788    0.005123964
 -------------------------------------------------------------------
 Cartesian Forces:  Max     0.039207788 RMS     0.014768322
 -----------------------------------------------------------------------------------------------
                       Internal Coordinate Forces (Hartree/Bohr or radian)
  Cent   Atom   N1       Length/X         N2         Alpha/Y        N3         Beta/Z          J
 -----------------------------------------------------------------------------------------------
      1  C 
      2  H        1   0.000037(     1)
      3  H        1  -0.000022(     2)      2  -0.000179(     5)
      4  H        1  -0.000022(     3)      2  -0.000178(     6)      3  -0.000091(     8)     0
      5  H        1  -0.040470(     4)      2   0.000025(     7)      3   0.000020(     9)     0
 -----------------------------------------------------------------------------------------------
 Internal  Forces:  Max     0.040469833 RMS     0.013490255

 GradGradGradGradGradGradGradGradGradGradGradGradGradGradGradGradGradGrad
 Berny optimization.
 Search for a local minimum.
 Step number   1 out of a maximum of    2
 All quantities printed in internal units (Hartrees-Bohrs-Radians)
 Second derivative matrix not updated -- analytic derivatives used.
 The second derivative matrix:
                          R1        R2        R3        A2        A3
           R1           0.37277
           R2          -0.00005   0.37256
           R3          -0.00005  -0.00001   0.37260
           A2           0.01535   0.00148  -0.01447   0.18444
           A3           0.01535  -0.01446   0.00141   0.08188   0.18445
           D3           0.00098  -0.00479  -0.00584   0.03280   0.02251
           DH1          0.00000  -0.00110   0.00111  -0.01038   0.01039
           ANG1        -0.00129   0.00064   0.00065   0.00133   0.00132
           BB          -0.00072  -0.00071  -0.00071  -0.00245  -0.00243
                          D3        DH1      ANG1       BB
           D3           0.05755
           DH1         -0.03297   0.06598
           ANG1        -0.02009   0.00005   0.06719
           BB           0.00971   0.00003   0.00004  -0.05917
 ITU=  0
     Eigenvalues ---    0.01924   0.06479   0.08658   0.11431   0.26732
     Eigenvalues ---    0.37266   0.37355   0.379081000.00000
 Angle between quadratic step and forces=  40.63 degrees.
 Linear search not attempted -- first point.
 Variable       Old X    -DE/DX   Delta X   Delta X   Delta X     New X
                                 (Linear)    (Quad)   (Total)
    R1        2.03799   0.00004   0.00000   0.00015   0.00015   2.03814
    R2        2.03824  -0.00002   0.00000  -0.00010  -0.00010   2.03815
    R3        2.03825  -0.00002   0.00000  -0.00009  -0.00009   2.03816
    A2        2.06741  -0.00018   0.00000  -0.00053  -0.00053   2.06688
    A3        2.06724  -0.00018   0.00000  -0.00058  -0.00058   2.06666
    D3        3.57522  -0.00009   0.00000  -0.00124  -0.00124   3.57398
   DH1        1.78732   0.00002   0.00000  -0.00031  -0.00031   1.78701
   ANG1       1.69790   0.00003   0.00000   0.00003   0.00003   1.69793
    BB        4.15740  -0.04047   0.00000   0.00000   0.00000   4.15740
         Item               Value     Threshold  Converged?
 Maximum Force            0.000179     0.000450     YES
 RMS     Force            0.000097     0.000300     YES
 Maximum Displacement     0.001239     0.001800     YES
 RMS     Displacement     0.000505     0.001200     YES
 Predicted change in Energy=-1.577318D-07
 Optimization completed.
    -- Stationary point found.
                       ----------------------------
                       !   Optimized Parameters   !
                       ! (Angstroms and Degrees)  !
 ----------------------                            ----------------------
 !      Name          Value   Derivative information (Atomic Units)     !
 ------------------------------------------------------------------------
 !       R1          1.0785   -DE/DX =    0.0                           !
 !       R2          1.0786   -DE/DX =    0.0                           !
 !       R3          1.0786   -DE/DX =    0.0                           !
 !       A2        118.454    -DE/DX =   -0.0002                        !
 !       A3        118.4442   -DE/DX =   -0.0002                        !
 !       D3        204.8451   -DE/DX =   -0.0001                        !
 !       DH1       102.4061   -DE/DX =    0.0                           !
 !      ANG1        97.2825   -DE/DX =    0.0                           !
 !       BB          2.2      -DE/DX =   -0.0405                        !
 ------------------------------------------------------------------------
 GradGradGradGradGradGradGradGradGradGradGradGradGradGradGradGradGradGrad


 Test job not archived.
 1\1\GINC-NODE-6-7\Freq\UwB97XD\Aug-CC-pVTZ\C1H4\CAVALLOTTI\03-Jun-2023
 \1\\#N Geom=AllCheck Guess=TCheck SCRF=Check Test GenChk UwB97XD/Aug-C
 C-pVTZ Freq\\geom 0\\0,1\C\H,1,R1\H,1,R2,2,A2\H,1,R3,2,A3,3,D3,0\H,1,B
 B,2,ANG1,3,DH1,0\\R1=1.07845692\R2=1.07859157\R3=1.07859631\A2=118.454
 04354\A3=118.44417105\D3=204.84509977\DH1=102.40613129\ANG1=97.2824845
 2\BB=2.2\\Version=EM64L-G09RevD.01\HF=-40.3669431\S2=0.400859\S2-1=0.\
 S2A=0.003249\RMSD=3.008e-10\RMSF=1.477e-02\ZeroPoint=0.0339003\Thermal
 =0.0370323\Dipole=0.1048863,0.4765777,0.0622804\DipoleDeriv=-0.014318,
 -0.0489953,-0.0062807,-0.0489792,-0.2258613,-0.0290536,-0.0063494,-0.0
 291018,-0.0075584,0.0592885,-0.0027164,-0.0114402,-0.0027149,0.0475549
 ,-0.0518814,-0.0051057,-0.0233084,-0.02151,-0.0103001,-0.0216456,0.032
 1056,-0.0471047,0.0470357,0.0223043,0.0259536,0.0086948,0.0477559,0.02
 57522,0.0315142,-0.0198497,0.0569794,0.010638,0.0337479,-0.0199715,0.0
 18815,0.0476682,-0.0604226,0.0418433,0.0054649,0.0418194,0.1206326,0.0
 248829,0.0054731,0.0249003,-0.0663557\Polar=22.0442241,5.7641103,46.96
 8777,0.7511491,3.4228472,21.2229568\PG=C01 [X(C1H4)]\NImag=1\\0.597872
 11,-0.13013375,0.03582713,-0.01713305,-0.07759305,0.61723122,-0.052473
 83,0.00743759,-0.00063746,0.04439284,0.00742841,-0.02034998,-0.0028982
 1,-0.00610384,0.01802637,0.00068512,0.00312471,-0.35998160,-0.00071790
 ,-0.00328199,0.37277378,-0.28993643,0.00631604,0.12938821,0.00501076,0
 .00104932,-0.00363546,0.29749109,0.00101230,-0.02026688,0.00790414,0.0
 0121115,0.00285395,0.00053336,-0.00585708,0.01792382,0.12811386,0.0050
 3403,-0.12219811,0.02500195,0.00079653,-0.00659341,-0.13783380,-0.0038
 0916,0.11947006,-0.24518781,0.09785203,-0.11403707,0.00376342,-0.00146
 396,0.00352468,-0.01223133,0.00922070,-0.01379530,0.25266621,0.1031528
 4,-0.06511548,0.06156578,-0.00163245,0.00409645,-0.00103087,-0.0016398
 8,0.00412309,-0.00090766,-0.10287060,0.06283758,-0.11408396,0.05842635
 ,-0.12213197,-0.02235877,0.01123054,-0.00659696,0.01213512,-0.00661537
 ,0.00928860,0.12342340,-0.06140793,0.11940709,-0.01027405,0.01852809,0
 .00241937,-0.00069319,-0.00090993,0.00014356,-0.00033409,-0.00558708,-
 0.00148670,0.00098951,0.00299009,0.00088422,0.01031183,0.01854019,0.06
 990521,0.01102133,-0.00091245,-0.00462680,0.00065480,0.00013159,-0.004
 63398,-0.00111374,-0.00273817,-0.00594164,-0.00163359,-0.01502116,-0.0
 5470278,0.00241804,0.01100796,-0.01291955,-0.00128782,-0.00584688,0.00
 039819,-0.00005407,0.00198703,0.00003286,0.00088430,0.00178068,0.00003
 325,-0.00196045,-0.00892880,0.01245525\\0.00860997,0.03912942,0.005336
 35,-0.00000962,-0.00000346,-0.00003748,-0.00002232,0.00004521,-0.00008
 789,0.00004182,0.00003662,-0.00008701,-0.00861985,-0.03920779,-0.00512
 396\\\@


 EVERYTHING'S GOT A MORAL, IF ONLY YOU CAN FIND IT.

                                    -- LEWIS CARROL, ALICE IN WONDERLAND
 Job cpu time:       0 days  0 hours  7 minutes 44.9 seconds.
 File lengths (MBytes):  RWF=     66 Int=      0 D2E=      0 Chk=      3 Scr=      1
 Normal termination of Gaussian 09 at Sat Jun  3 08:52:48 2023.
