
 Working directory              : /scratch/cc//molpro.dXVfsvvN6R/
 Global scratch directory       : /scratch/cc//molpro.dXVfsvvN6R/
 Wavefunction directory         : /home/chimica2/cavallotti/wfu/
 Main file repository           : /scratch/cc//molpro.dXVfsvvN6R/

 id        : polimi

 Nodes     nprocs
 node-6-10    1
 Distribution of processes:   nprocs(total)=    2   nprocs(compute)=    1   nprocs(helper)=    1
 GA implementation: MPI file
 GA implementation (serial work in mppx): MPI file

 Using customized tuning parameters: mindgm=1; mindgv=20; mindgc=4; mindgr=1; noblas=0; minvec=7
 default implementation of scratch files=df  


 Variables initialized (1009), CPU time= 0.01 sec
  memory,         400 ,m
 
 symmetry, nosym; orient, noorient
 angstrom
 geomtyp=xyz
 geometry={
 5
 rotational dynamics
 C, -0.00224156, 0.0176243, 0.248789
 H, -0.375303, 0.329873, -0.713418
 H, 1.02519, 0.206855, 0.515432
 H, -0.657059, -0.48089, 0.945366
 H, 0.0338631, -0.265687, -3.70967
 }
 
  basis=cc-pvdz
  {multi;closed, 4;occ, 6;wf, 10,1,0,;state,1;maxiter,40}
  if (iterations.ge.0) then
     {rs2,shift=0.2;orbital,IGNORE_ERROR;state,1}
     molpro_energy = energy +   40.192865169999997
  else
     molpro_energy = 10.0
  endif
 Commands initialized (810), CPU time= 0.01 sec, 661 directives.
 Default parameters read. Elapsed time= 0.20 sec

 Checking input...
 Passed
1


                                         ***  PROGRAM SYSTEM MOLPRO  ***
                                       Copyright, TTI GmbH Stuttgart, 2015
                                    Version 2021.2 linked Jun  2 2021 16:00:59


 **********************************************************************************************************************************
 LABEL *                                                                                 
  64 bit serial version                                                                  DATE: 03-Jun-23          TIME: 09:16:08  
 **********************************************************************************************************************************

 SHA1:             1987c3f1b0c3ae76932bc24993909f2d7ae6b1f1
 **********************************************************************************************************************************

 Memory per process:       400 MW
 Total memory per node:    400 MW

 GA preallocation disabled
 GA check disabled

 Variable memory set to 400.0 MW

 SETTING GEOMTYP        =    XYZ
 ZSYMEL=NOSYM
 ZUNIT=ANG

 SETTING BASIS          =    CC-PVDZ


 Recomputing integrals since basis changed


 Using spherical harmonics

 Library entry C      S cc-pVDZ              selected for orbital group  1
 Library entry C      P cc-pVDZ              selected for orbital group  1
 Library entry C      D cc-pVDZ              selected for orbital group  1
 Library entry H      S cc-pVDZ              selected for orbital group  2
 Library entry H      P cc-pVDZ              selected for orbital group  2


 PROGRAM * SEWARD (Integral evaluation for generally contracted gaussian basis sets)     Author: Roland Lindh, 1990

 Geometry written to block  1 of record 700


 Point group  C1  



 ATOMIC COORDINATES

 NR  ATOM    CHARGE       X              Y              Z

   1  C       6.00   -0.004235934    0.033305100    0.470143073
   2  H       1.00   -0.709219884    0.623369626   -1.348164632
   3  H       1.00    1.937328326    0.390899298    0.974025316
   4  H       1.00   -1.241661558   -0.908750396    1.786482828
   5  H       1.00    0.063991985   -0.502075665   -7.010260313

 Bond lengths in Bohr (Angstrom)

 1-2  2.037503724  1-3  2.037508945  1-4  2.037508547
     ( 1.078200538)     ( 1.078203301)     ( 1.078203090)

 Bond angles

  2-1-3  119.97235273   2-1-4  120.02077417   3-1-4  120.00659427

 NUCLEAR CHARGE:                   10
 NUMBER OF PRIMITIVE AOS:          55
 NUMBER OF SYMMETRY AOS:           54
 NUMBER OF CONTRACTIONS:           34   (   34A   )
 NUMBER OF INNER CORE ORBITALS:     0   (    0A   )
 NUMBER OF OUTER CORE ORBITALS:     1   (    1A   )
 NUMBER OF VALENCE ORBITALS:        8   (    8A   )


 NUCLEAR REPULSION ENERGY   10.88966364


 Eigenvalues of metric

         1 0.149E-01 0.346E-01 0.352E-01 0.421E-01 0.519E-01 0.542E-01 0.931E-01 0.123E+00


 Contracted 2-electron integrals neglected if value below      1.0D-11
 AO integral compression algorithm  1   Integral accuracy      1.0D-11

     1.049 MB (compressed) written to integral file ( 64.3%)


 NUMBER OF SORTED TWO-ELECTRON INTEGRALS:     177310.     BUFFER LENGTH:  32768
 NUMBER OF SEGMENTS:   1  SEGMENT LENGTH:     177310      RECORD LENGTH: 524288

 Memory used in sort:       0.73 MW

 SORT1 READ      210929. AND WROTE      160197. INTEGRALS IN      1 RECORDS. CPU TIME:     0.01 SEC, REAL TIME:     0.01 SEC
 SORT2 READ      160197. AND WROTE      177310. INTEGRALS IN      4 RECORDS. CPU TIME:     0.02 SEC, REAL TIME:     0.03 SEC

 FILE SIZES:   FILE 1:    31.1 MBYTE,  FILE 4:     4.2 MBYTE,   TOTAL:     35.3 MBYTE

 OPERATOR DM      FOR CENTER  0  COORDINATES:    0.000000    0.000000    0.000000


 **********************************************************************************************************************************
 DATASETS  * FILE   NREC   LENGTH (MB)   RECORD NAMES
              1      19       29.38       500      610      700      900      950      970     1000      129      960     1100   
                                          VAR    BASINP    GEOM    SYMINP    ZMAT    AOBASIS   BASIS     P2S    ABASIS      S 
                                         1400     1410     1200     1210     1080     1600     1650     1300     1700   
                                           T        V       H0       H01     AOSYM     SMH    MOLCAS    ERIS     OPER   

 PROGRAMS   *        TOTAL       INT
 CPU TIMES  *         0.40      0.25
 REAL TIME  *         1.00 SEC
 DISK USED  *        34.01 MB
 **********************************************************************************************************************************

 PROGRAM * MULTI (Direct Multiconfiguration SCF)       Authors: P.J. Knowles, H.-J. Werner (1984)
                                                                D.A. Kreplin, P.J. Knowles, H.-J. Werner (2019)

 Number of closed-shell orbitals:   4 (   4 )
 Number of active  orbitals:        2 (   2 )
 Number of external orbitals:      28 (  28 )

 State symmetry 1

 Number of active electrons:   2    Spin symmetry=Singlet   Space symmetry=1
 Number of states:             1
 Number of CSFs:               3   (4 determinants, 4 intermediate states)

 Orbital guess generated from atomic densities. Full valence occupancy:    9

 Wavefunction dump at record             2140.2

 Convergence thresholds  0.10E-04 (gradient)  0.10E-05 (energy)
 
 Number of orbital rotations:  176  ( 8 closed/active, 112 closed/virtual, 0 active/active, 56 active/virtual )
 Total number of variables:    180
 
  Second-order MCSCF: L-BFGS accelerated
 
 ITER  MIC  NCI  NEG     ENERGY(VAR)    ENERGY(PROJ) ENERGY CHANGE       GRAD(0)  GRAD(ORB)   GRAD(CI)      STEP      TIME
   1    5    4    0    -40.04280295     -40.05890551   -0.01610255    0.14625137 0.00014601 0.00000000  0.13E+00      0.11
   2    7    6    0    -40.05887469     -40.05887669   -0.00000199    0.00199689 0.00000001 0.00000000  0.11E-02      0.24
   3    3    3    0    -40.05887669     -40.05887669   -0.00000000    0.00000073 0.00000000 0.00000000  0.41E-06      0.32

 CONVERGENCE REACHED!  Final gradient:    0.00000000 ( 0.15E-09)
                       Final energy:    -40.05887669
 
 First order charge density matrix for state 1.1 saved on record 2140.2 (density set 1)
 
 Results for state 1.1
 =====================
 !MCSCF STATE 1.1 Energy                       -40.058876688551
 Nuclear energy                                 10.88966364
 Kinetic energy                                 39.99634875
 One electron energy                           -74.48848511
 Two electron energy                            23.53994479
 Virial ratio                                    2.00156334
 
 !MCSCF STATE 1.1 Dipole moment                 -0.00031111     0.00103886     0.00124953
 Dipole moment /Debye                           -0.00079077     0.00264051     0.00317600
 
 No non-zero expectation values
 
 
 Natural orbital dump at molpro section 2140.2 (Orbital set 2)


 **********************************************************************************************************************************
 DATASETS  * FILE   NREC   LENGTH (MB)   RECORD NAMES
              1      20       29.68       500      610      700      900      950      970     1000      129      960     1100   
                                          VAR    BASINP    GEOM    SYMINP    ZMAT    AOBASIS   BASIS     P2S    ABASIS      S 
                                         1400     1410     1200     1210     1080     1600     1650     1300     1700     1380   
                                           T        V       H0       H01     AOSYM     SMH    MOLCAS    ERIS     OPER     JKOP   

              2       4        2.72       700     1000      520     2140   
                                         GEOM     BASIS   MCVARS    MCSCF   

 PROGRAMS   *        TOTAL     MULTI       INT
 CPU TIMES  *         0.64      0.24      0.25
 REAL TIME  *         1.47 SEC
 DISK USED  *        34.01 MB
 **********************************************************************************************************************************


 PROGRAM * RS2 (Multireference RS Perturbation Theory)     Authors: H.-J. Werner (1993), P. Celani (1998)


 Level shift= 0.20

 Convergence thresholds:  THRVAR = 1.00D-08  THRDEN = 1.00D-06

 Number of optimized states: 1  Roots:    1
 Number of reference states: 1  Roots:    1

 Reference symmetry:                   1   Singlet 
 Number of electrons:                 10
 Maximum number of shells:             4
 Maximum number of spin couplings:     5

 Reference space:        3 conf        3 CSFs
 N elec internal:       15 conf       15 CSFs
 N-1 el internal:       23 conf       32 CSFs
 N-2 el internal:       25 conf       52 CSFs

 Number of electrons in valence space:                      8
 Maximum number of open shell orbitals in reference space:  2
 Maximum number of open shell orbitals in internal spaces:  6


 Number of core orbitals:           1 (   1 )
 Number of closed-shell orbitals:   3 (   3 )
 Number of active  orbitals:        2 (   2 )
 Number of external orbitals:      28 (  28 )

 Molecular orbitals read from record     2140.2  Type=MCSCF/NATURAL (state 1.1)

 Integral transformation finished. Total CPU:   0.00 sec, npass=  1  Memory used:   0.11 MW


 Number of p-space configurations:   3

 Reference wavefunction optimized for reference space (refopt=1)

 State     Reference Energy 
     1       -40.05887669

 Number of blocks in overlap matrix:     2   Smallest eigenvalue:  0.10D+01
 Number of N-2 electron functions:      22
 Number of N-1 electron functions:      32

 Number of internal configurations:                   15
 Number of singly external configurations:           896
 Number of doubly external configurations:          8680
 Total number of contracted configurations:         9591
 Total number of uncontracted configurations:      21351

 Weight factors for SA-density in H0:    1.000000

 FIMAX=  0.42D-01  FXMAX=  0.26D-13  DIAG=  F  T  NOREF=1  NOINT=0  IHPPD=2

 Nuclear energy:                      10.88966364
 Core energy:                        -35.57000900
 Zeroth-order valence energy:         -4.36965161
 Zeroth-order total energy:          -29.04999697
 First-order energy:                 -11.00887971

 Using uncontracted singles

 Diagonal Coupling coefficients finished.               Storage:     883 words, CPU-Time:      0.00 seconds.
 Energy denominators for pairs finished in 0 passes.    Storage:    2295 words, CPU-time:      0.00 seconds.

 A level shift of 0.20 is applied.

  ITER. STATE  ROOT     SQ.NORM     CORR.ENERGY   TOTAL ENERGY   ENERGY CHANGE       DEN1      VAR(S)    VAR(P)      TIME
    1     1     1     1.00519349    -0.00103870   -40.05991539    -0.00103870    -0.12596085  0.52D-02  0.36D-01     0.02
    2     1     1     1.04130208    -0.13400160   -40.19287829    -0.13296290     0.00012838  0.16D-04  0.71D-05     0.02
    3     1     1     1.04127899    -0.13403750   -40.19291419    -0.00003590    -0.00002024  0.44D-07  0.48D-07     0.03
    4     1     1     1.04129748    -0.13404136   -40.19291804    -0.00000386     0.00000019  0.58D-09  0.13D-09     0.03
    5     1     1     1.04129750    -0.13404136   -40.19291805    -0.00000000    -0.00000006  0.31D-11  0.22D-11     0.03

 Energies without level shift correction:

    5     1     1     1.04129750    -0.12578186   -40.18465855

 Energy contributions for state 1.1:
 ===================================

            Energy contr.      SQ.Norm of FOWF
 Space I     -0.00000202          0.00000146
 Space S     -0.01128909          0.00510373
 Space P     -0.11449075          0.03619231


 =====================================
 Analysis of CPU times by interactions
 =====================================

       I      S      P

 I  33.3%
 S   0.0%   0.0%
 P   0.0%   0.0%   0.0%

 Initialization:  33.3%
 Other:           33.3%

 Total CPU:        0.0 seconds
 =====================================



 gnormi=  1.00000146  gnorms=  0.00510373  gnormp=  0.03619231  gnorm=  1.04129750
 ecorri= -0.00000202  ecorrs= -0.01128909  ecorrp= -0.11449075  ecorr= -0.13404136

 Reference coefficients greater than 0.0500000
 =============================================
 22220           0.7200150
 22202          -0.6939586


 RESULTS FOR STATE 1.1
 =====================

 Coefficient of reference function:   C(0) = 1.00000000 (fixed)   1.00000000 (relaxed)

 Energy contributions of configuration classes

 CLASS          SQ.NORM        ECORR1        ECORR2
 +++++++++++++++++++++++++++++++++++++++++++++++++++
 Internals    0.00000146   -0.00000202    0.13403706
 Singles      0.00510373   -0.01128909   -0.02406078
 Pairs        0.03619231   -0.11449075   -0.24401764
 Total        1.04129750   -0.12578186   -0.13404136
 +++++++++++++++++++++++++++++++++++++++++++++++++++


 Reference energy                     -40.05887669
 Nuclear energy                        10.88966364
 Kinetic energy                        40.08705400
 One electron energy                  -74.42347666
 Two electron energy                   23.34089498
 Virial quotient                       -1.00264085
 Correlation energy                    -0.13404136
 !RSPT2 STATE 1.1 Energy              -40.192918049438

 Properties without orbital relaxation:

 !RSPT2 STATE 1.1 Dipole moment        -0.00028712     0.00103529     0.00128842
 Dipole moment /Debye                  -0.00072979     0.00263144     0.00327484


 **********************************************************************************************************************************
 DATASETS  * FILE   NREC   LENGTH (MB)   RECORD NAMES
              1      20       29.68       500      610      700      900      950      970     1000      129      960     1100   
                                          VAR    BASINP    GEOM    SYMINP    ZMAT    AOBASIS   BASIS     P2S    ABASIS      S 
                                         1400     1410     1200     1210     1080     1600     1650     1300     1700     1380   
                                           T        V       H0       H01     AOSYM     SMH    MOLCAS    ERIS     OPER     JKOP   

              2       4        2.72       700     1000      520     2140   
                                         GEOM     BASIS   MCVARS    MCSCF   

 PROGRAMS   *        TOTAL       RS2     MULTI       INT
 CPU TIMES  *         0.72      0.08      0.24      0.25
 REAL TIME  *         1.62 SEC
 DISK USED  *        34.01 MB
 **********************************************************************************************************************************
 SETTING MOLPRO_ENERGY  =    -5.28794377D-05  AU                              

 RS2/cc-pVDZ energy=    -40.192918049438

             RS2           MULTI
    -40.19291805    -40.05887669
 **********************************************************************************************************************************
 Molpro calculation terminated
